# vtk DataFile Version 3.0

ASCII
DATASET UNSTRUCTURED_GRID
POINTS 41696 float
0.637 0.554 0.0
0.528 0.613 0.0
0.539 0.608 0.0
0.55 0.603 0.0
0.561 0.598 0.0
0.573 0.592 0.0
0.584 0.586 0.0
0.595 0.58 0.0
0.605 0.574 0.0
0.616 0.568 0.0
0.627 0.561 0.0
0.516 0.618 0.0
0.647 0.547 0.0
0.657 0.54 0.0
0.667 0.533 0.0
0.677 0.525 0.0
0.687 0.517 0.0
0.697 0.509 0.0
0.706 0.501 0.0
0.715 0.493 0.0
0.725 0.484 0.0
0.734 0.476 0.0
0.397 0.654 0.0
0.273 0.667 0.0
0.285 0.666 0.0
0.298 0.666 0.0
0.31 0.665 0.0
0.323 0.664 0.0
0.335 0.663 0.0
0.347 0.662 0.0
0.36 0.66 0.0
0.372 0.658 0.0
0.384 0.656 0.0
0.742 0.467 0.0
0.409 0.651 0.0
0.421 0.648 0.0
0.433 0.645 0.0
0.445 0.642 0.0
0.457 0.639 0.0
0.469 0.635 0.0
0.481 0.631 0.0
0.493 0.627 0.0
0.504 0.623 0.0
0.923 0.118 0.0
0.889 0.238 0.0
0.894 0.226 0.0
0.898 0.214 0.0
0.902 0.202 0.0
0.905 0.191 0.0
0.909 0.179 0.0
0.912 0.166 0.0
0.915 0.154 0.0
0.918 0.142 0.0
0.92 0.13 0.0
0.885 0.249 0.0
0.925 0.106 0.0
0.927 0.093 0.0
0.928 0.081 0.0
0.93 0.068 0.0
0.931 0.056 0.0
0.932 0.044 0.0
0.933 0.031 0.0
0.933 0.019 0.0
0.933 0.006 0.0
0.828 0.36 0.0
0.751 0.458 0.0
0.76 0.449 0.0
0.768 0.44 0.0
0.776 0.43 0.0
0.784 0.42 0.0
0.792 0.411 0.0
0.799 0.401 0.0
0.807 0.391 0.0
0.814 0.381 0.0
0.821 0.37 0.0
0.26 0.667 0.0
0.834 0.349 0.0
0.841 0.339 0.0
0.847 0.328 0.0
0.853 0.317 0.0
0.859 0.306 0.0
0.865 0.295 0.0
0.87 0.284 0.0
0.875 0.272 0.0
0.88 0.261 0.0
-0.288 0.37 0.0
-0.347 0.261 0.0
-0.342 0.272 0.0
-0.337 0.284 0.0
-0.331 0.295 0.0
-0.326 0.306 0.0
-0.32 0.317 0.0
-0.314 0.328 0.0
-0.307 0.339 0.0
-0.301 0.349 0.0
-0.294 0.36 0.0
-0.352 0.249 0.0
-0.281 0.381 0.0
-0.273 0.391 0.0
-0.266 0.401 0.0
-0.258 0.411 0.0
-0.251 0.42 0.0
-0.243 0.43 0.0
-0.234 0.44 0.0
-0.226 0.449 0.0
-0.218 0.458 0.0
-0.387 0.13 0.0
-0.4 0.006 0.0
-0.4 0.019 0.0
-0.399 0.031 0.0
-0.398 0.044 0.0
-0.398 0.056 0.0
-0.396 0.068 0.0
-0.395 0.081 0.0
-0.393 0.093 0.0
-0.392 0.106 0.0
-0.389 0.118 0.0
-0.209 0.467 0.0
-0.385 0.142 0.0
-0.382 0.154 0.0
-0.379 0.166 0.0
-0.376 0.179 0.0
-0.372 0.191 0.0
-0.368 0.202 0.0
-0.365 0.214 0.0
-0.36 0.226 0.0
-0.356 0.238 0.0
0.137 0.654 0.0
0.017 0.618 0.0
0.029 0.623 0.0
0.041 0.627 0.0
0.052 0.631 0.0
0.064 0.635 0.0
0.076 0.639 0.0
0.088 0.642 0.0
0.1 0.645 0.0
0.112 0.648 0.0
0.124 0.651 0.0
0.006 0.613 0.0
0.149 0.656 0.0
0.161 0.658 0.0
0.173 0.66 0.0
0.186 0.662 0.0
0.198 0.663 0.0
0.211 0.664 0.0
0.223 0.665 0.0
0.236 0.666 0.0
0.248 0.666 0.0
-0.104 0.554 0.0
-0.2 0.476 0.0
-0.191 0.484 0.0
-0.182 0.493 0.0
-0.173 0.501 0.0
-0.163 0.509 0.0
-0.154 0.517 0.0
-0.144 0.525 0.0
-0.134 0.533 0.0
-0.124 0.54 0.0
-0.114 0.547 0.0
-0.168 0.505 0.0
-0.093 0.561 0.0
-0.083 0.568 0.0
-0.072 0.574 0.0
-0.061 0.58 0.0
-0.05 0.586 0.0
-0.039 0.592 0.0
-0.028 0.598 0.0
-0.017 0.603 0.0
-0.006 0.608 0.0
-0.339 0.278 0.0
-0.399 0.037 0.0
-0.397 0.062 0.0
-0.394 0.087 0.0
-0.39 0.112 0.0
-0.386 0.136 0.0
-0.38 0.16 0.0
-0.374 0.185 0.0
-0.366 0.208 0.0
-0.213 0.462 0.0
-0.349 0.255 0.0
-0.4 0.012 0.0
-0.328 0.3 0.0
-0.317 0.322 0.0
-0.304 0.344 0.0
-0.291 0.365 0.0
-0.277 0.386 0.0
-0.262 0.406 0.0
-0.247 0.425 0.0
-0.23 0.444 0.0
-0.358 0.232 0.0
0.035 0.625 0.0
-0.177 0.497 0.0
-0.159 0.513 0.0
-0.139 0.529 0.0
-0.119 0.544 0.0
-0.098 0.558 0.0
-0.077 0.571 0.0
-0.056 0.583 0.0
-0.034 0.595 0.0
-0.4 0.025 0.0
0.012 0.616 0.0
0.764 0.444 0.0
0.058 0.633 0.0
0.082 0.64 0.0
0.106 0.647 0.0
0.131 0.652 0.0
0.155 0.657 0.0
0.18 0.661 0.0
0.204 0.664 0.0
0.229 0.666 0.0
-0.011 0.606 0.0
0.545 0.606 0.0
0.304 0.666 0.0
0.329 0.664 0.0
0.354 0.661 0.0
0.378 0.657 0.0
0.403 0.652 0.0
0.427 0.647 0.0
0.451 0.64 0.0
0.475 0.633 0.0
0.499 0.625 0.0
0.747 0.462 0.0
0.279 0.666 0.0
0.567 0.595 0.0
0.589 0.583 0.0
0.611 0.571 0.0
0.632 0.558 0.0
0.652 0.544 0.0
0.672 0.529 0.0
0.692 0.513 0.0
0.711 0.497 0.0
0.729 0.48 0.0
0.9 0.208 0.0
0.78 0.425 0.0
0.795 0.406 0.0
0.81 0.386 0.0
0.824 0.365 0.0
0.838 0.344 0.0
0.85 0.322 0.0
0.862 0.3 0.0
0.873 0.278 0.0
0.254 0.666 0.0
0.892 0.232 0.0
-0.196 0.48 0.0
0.907 0.185 0.0
0.914 0.16 0.0
0.919 0.136 0.0
0.924 0.112 0.0
0.928 0.087 0.0
0.93 0.062 0.0
0.932 0.037 0.0
0.933 0.012 0.0
0.882 0.255 0.0
-0.323 0.312 0.0
-0.396 0.075 0.0
-0.393 0.099 0.0
-0.388 0.124 0.0
-0.383 0.148 0.0
-0.377 0.173 0.0
-0.37 0.197 0.0
-0.363 0.22 0.0
-0.354 0.244 0.0
-0.187 0.489 0.0
-0.334 0.289 0.0
-0.398 0.05 0.0
-0.311 0.333 0.0
-0.298 0.355 0.0
-0.284 0.376 0.0
-0.27 0.396 0.0
-0.255 0.416 0.0
-0.239 0.435 0.0
-0.222 0.453 0.0
-0.205 0.471 0.0
-0.344 0.267 0.0
0.07 0.637 0.0
-0.149 0.521 0.0
-0.129 0.536 0.0
-0.109 0.551 0.0
-0.088 0.564 0.0
-0.067 0.577 0.0
-0.045 0.589 0.0
-0.023 0.601 0.0
7.198e-05 0.611 0.0
0.933 0.0 0.0
0.046 0.629 0.0
0.772 0.435 0.0
0.094 0.644 0.0
0.118 0.65 0.0
0.143 0.655 0.0
0.167 0.659 0.0
0.192 0.662 0.0
0.217 0.665 0.0
0.242 0.666 0.0
0.267 0.667 0.0
0.023 0.621 0.0
0.578 0.589 0.0
0.341 0.662 0.0
0.366 0.659 0.0
0.391 0.655 0.0
0.415 0.65 0.0
0.439 0.644 0.0
0.463 0.637 0.0
0.487 0.629 0.0
0.51 0.621 0.0
0.755 0.453 0.0
0.556 0.601 0.0
0.316 0.665 0.0
0.6 0.577 0.0
0.621 0.564 0.0
0.642 0.551 0.0
0.663 0.536 0.0
0.682 0.521 0.0
0.702 0.505 0.0
0.72 0.489 0.0
0.738 0.471 0.0
0.533 0.611 0.0
0.904 0.197 0.0
0.788 0.416 0.0
0.803 0.396 0.0
0.817 0.376 0.0
0.831 0.355 0.0
0.844 0.333 0.0
0.856 0.312 0.0
0.867 0.289 0.0
0.878 0.267 0.0
0.292 0.666 0.0
0.896 0.22 0.0
0.522 0.616 0.0
0.911 0.173 0.0
0.917 0.148 0.0
0.922 0.124 0.0
0.926 0.099 0.0
0.929 0.075 0.0
0.931 0.05 0.0
0.933 0.025 0.0
-0.4 0.0 0.0
0.887 0.244 0.0
-0.104 -0.554 0.0
0.006 -0.613 0.0
-0.006 -0.608 0.0
-0.017 -0.603 0.0
-0.028 -0.598 0.0
-0.039 -0.592 0.0
-0.05 -0.586 0.0
-0.061 -0.58 0.0
-0.072 -0.574 0.0
-0.083 -0.568 0.0
-0.093 -0.561 0.0
0.017 -0.618 0.0
-0.114 -0.547 0.0
-0.124 -0.54 0.0
-0.134 -0.533 0.0
-0.144 -0.525 0.0
-0.154 -0.517 0.0
-0.163 -0.509 0.0
-0.173 -0.501 0.0
-0.182 -0.493 0.0
-0.191 -0.484 0.0
0.137 -0.654 0.0
0.26 -0.667 0.0
0.248 -0.666 0.0
0.236 -0.666 0.0
0.223 -0.665 0.0
0.211 -0.664 0.0
0.198 -0.663 0.0
0.186 -0.662 0.0
0.173 -0.66 0.0
0.161 -0.658 0.0
0.149 -0.656 0.0
-0.2 -0.476 0.0
0.124 -0.651 0.0
0.112 -0.648 0.0
0.1 -0.645 0.0
0.088 -0.642 0.0
0.076 -0.639 0.0
0.064 -0.635 0.0
0.052 -0.631 0.0
0.041 -0.627 0.0
0.029 -0.623 0.0
-0.387 -0.13 0.0
-0.352 -0.249 0.0
-0.356 -0.238 0.0
-0.36 -0.226 0.0
-0.365 -0.214 0.0
-0.368 -0.202 0.0
-0.372 -0.191 0.0
-0.376 -0.179 0.0
-0.379 -0.166 0.0
-0.382 -0.154 0.0
-0.385 -0.142 0.0
-0.347 -0.261 0.0
-0.389 -0.118 0.0
-0.392 -0.106 0.0
-0.393 -0.093 0.0
-0.395 -0.081 0.0
-0.396 -0.068 0.0
-0.398 -0.056 0.0
-0.398 -0.044 0.0
-0.399 -0.031 0.0
-0.4 -0.019 0.0
-0.288 -0.37 0.0
-0.209 -0.467 0.0
-0.218 -0.458 0.0
-0.226 -0.449 0.0
-0.234 -0.44 0.0
-0.243 -0.43 0.0
-0.251 -0.42 0.0
-0.258 -0.411 0.0
-0.266 -0.401 0.0
-0.273 -0.391 0.0
-0.281 -0.381 0.0
0.273 -0.667 0.0
-0.294 -0.36 0.0
-0.301 -0.349 0.0
-0.307 -0.339 0.0
-0.314 -0.328 0.0
-0.32 -0.317 0.0
-0.326 -0.306 0.0
-0.331 -0.295 0.0
-0.337 -0.284 0.0
-0.342 -0.272 0.0
0.821 -0.37 0.0
0.88 -0.261 0.0
0.875 -0.272 0.0
0.87 -0.284 0.0
0.865 -0.295 0.0
0.859 -0.306 0.0
0.853 -0.317 0.0
0.847 -0.328 0.0
0.841 -0.339 0.0
0.834 -0.349 0.0
0.828 -0.36 0.0
0.885 -0.249 0.0
0.814 -0.381 0.0
0.807 -0.391 0.0
0.799 -0.401 0.0
0.792 -0.411 0.0
0.784 -0.42 0.0
0.776 -0.43 0.0
0.768 -0.44 0.0
0.76 -0.449 0.0
0.751 -0.458 0.0
0.92 -0.13 0.0
0.933 -0.006 0.0
0.933 -0.019 0.0
0.933 -0.031 0.0
0.932 -0.044 0.0
0.931 -0.056 0.0
0.93 -0.068 0.0
0.928 -0.081 0.0
0.927 -0.093 0.0
0.925 -0.106 0.0
0.923 -0.118 0.0
0.742 -0.467 0.0
0.918 -0.142 0.0
0.915 -0.154 0.0
0.912 -0.166 0.0
0.909 -0.179 0.0
0.905 -0.191 0.0
0.902 -0.202 0.0
0.898 -0.214 0.0
0.894 -0.226 0.0
0.889 -0.238 0.0
0.397 -0.654 0.0
0.516 -0.618 0.0
0.504 -0.623 0.0
0.493 -0.627 0.0
0.481 -0.631 0.0
0.469 -0.635 0.0
0.457 -0.639 0.0
0.445 -0.642 0.0
0.433 -0.645 0.0
0.421 -0.648 0.0
0.409 -0.651 0.0
0.528 -0.613 0.0
0.384 -0.656 0.0
0.372 -0.658 0.0
0.36 -0.66 0.0
0.347 -0.662 0.0
0.335 -0.663 0.0
0.323 -0.664 0.0
0.31 -0.665 0.0
0.298 -0.666 0.0
0.285 -0.666 0.0
0.637 -0.554 0.0
0.734 -0.476 0.0
0.725 -0.484 0.0
0.715 -0.493 0.0
0.706 -0.501 0.0
0.697 -0.509 0.0
0.687 -0.517 0.0
0.677 -0.525 0.0
0.667 -0.533 0.0
0.657 -0.54 0.0
0.647 -0.547 0.0
-0.4 -0.006 0.0
0.627 -0.561 0.0
0.616 -0.568 0.0
0.605 -0.574 0.0
0.595 -0.58 0.0
0.584 -0.586 0.0
0.573 -0.592 0.0
0.561 -0.598 0.0
0.55 -0.603 0.0
0.539 -0.608 0.0
0.882 -0.255 0.0
0.933 -0.012 0.0
0.932 -0.037 0.0
0.93 -0.062 0.0
0.928 -0.087 0.0
0.924 -0.112 0.0
0.919 -0.136 0.0
0.914 -0.16 0.0
0.907 -0.185 0.0
0.9 -0.208 0.0
0.747 -0.462 0.0
0.545 -0.606 0.0
0.873 -0.278 0.0
0.862 -0.3 0.0
0.85 -0.322 0.0
0.838 -0.344 0.0
0.824 -0.365 0.0
0.81 -0.386 0.0
0.795 -0.406 0.0
0.78 -0.425 0.0
0.764 -0.444 0.0
0.522 -0.616 0.0
0.729 -0.48 0.0
0.711 -0.497 0.0
0.692 -0.513 0.0
0.672 -0.529 0.0
0.652 -0.544 0.0
0.632 -0.558 0.0
0.611 -0.571 0.0
0.589 -0.583 0.0
0.567 -0.595 0.0
-0.4 -0.012 0.0
0.892 -0.232 0.0
0.499 -0.625 0.0
0.475 -0.633 0.0
0.451 -0.64 0.0
0.427 -0.647 0.0
0.403 -0.652 0.0
0.378 -0.657 0.0
0.354 -0.661 0.0
0.329 -0.664 0.0
0.304 -0.666 0.0
0.012 -0.616 0.0
0.254 -0.666 0.0
0.229 -0.666 0.0
0.204 -0.664 0.0
0.18 -0.661 0.0
0.155 -0.657 0.0
0.131 -0.652 0.0
0.106 -0.647 0.0
0.082 -0.64 0.0
0.058 -0.633 0.0
-0.196 -0.48 0.0
-0.339 -0.278 0.0
-0.011 -0.606 0.0
-0.034 -0.595 0.0
-0.056 -0.583 0.0
-0.077 -0.571 0.0
-0.098 -0.558 0.0
-0.119 -0.544 0.0
-0.139 -0.529 0.0
-0.159 -0.513 0.0
-0.177 -0.497 0.0
-0.349 -0.255 0.0
-0.213 -0.462 0.0
-0.23 -0.444 0.0
-0.247 -0.425 0.0
-0.262 -0.406 0.0
-0.277 -0.386 0.0
-0.291 -0.365 0.0
-0.304 -0.344 0.0
-0.317 -0.322 0.0
-0.328 -0.3 0.0
0.279 -0.666 0.0
0.046 -0.629 0.0
-0.358 -0.232 0.0
-0.366 -0.208 0.0
-0.374 -0.185 0.0
-0.38 -0.16 0.0
-0.386 -0.136 0.0
-0.39 -0.112 0.0
-0.394 -0.087 0.0
-0.397 -0.062 0.0
-0.399 -0.037 0.0
0.867 -0.289 0.0
0.931 -0.05 0.0
0.929 -0.075 0.0
0.926 -0.099 0.0
0.922 -0.124 0.0
0.917 -0.148 0.0
0.911 -0.173 0.0
0.904 -0.197 0.0
0.896 -0.22 0.0
[...]
POINT_DATA 41696
SCALARS ElectrostaticForcePoissonBVP_solution double 1
LOOKUP_TABLE default
0.0
0.0
0.0
0.0
0.0
0.0
0.0
0.0
0.0
0.0
0.0
0.0
0.0
0.0
0.0
0.0
0.0
0.0
0.0
0.0
0.0
0.0
0.0
0.0
0.0
0.0
0.0
0.0
0.0
0.0
0.0
0.0
0.0
0.0
0.0
0.0
0.0
0.0
0.0
0.0
0.0
0.0
0.0
-3.8e-18
0.0
1.27e-18
4.814e-18
-2.808e-18
0.0
0.0
6.444e-18
-3.033e-18
0.0
-1.6e-18
0.0
-3.343e-18
0.0
0.0
0.0
0.0
0.0
0.0
0.0
0.0
0.0
0.0
0.0
0.0
0.0
0.0
0.0
0.0
0.0
0.0
0.0
0.0
0.0
0.0
0.0
0.0
0.0
0.0
0.0
0.0
0.0
0.0
2.772e-17
-1.379e-17
0.0
0.0
0.0
0.0
0.0
0.0
0.0
0.0
0.0
1.611e-18
2.819e-17
1.374e-17
0.0
0.0
6.768e-20
-5.499e-18
0.0
-7.549e-18
0.0
0.0
0.0
0.0
0.0
0.0
0.0
0.0
0.0
0.0
0.0
0.0
2.734e-17
0.0
1.802e-18
0.0
1.231e-17
3.321e-17
0.0
1.461e-17
-1.168e-17
0.0
0.0
0.0
0.0
0.0
0.0
0.0
0.0
0.0
0.0
0.0
0.0
0.0
0.0
0.0
0.0
0.0
0.0
0.0
0.0
0.0
-9.26e-18
-1.606e-17
2.87e-18
0.0
-7.426e-19
1.037e-17
-1.945e-18
4.762e-18
0.0
-5.084e-18
0.0
0.0
4.78e-18
0.0
-6.969e-19
0.0
0.0
0.0
0.0
0.0
0.0
1.3e-17
0.0
0.0
0.0
0.0
0.0
-1.622e-17
1.213e-17
-1.661e-17
-6.039e-18
-2.464e-17
0.0
0.0
0.0
0.0
0.0
2.577e-17
0.0
-2.9e-18
-1.1e-17
0.0
0.0
8.19e-18
5.138e-18
-3.572e-18
-1.884e-17
0.0
5.575e-18
0.0
0.0
0.0
0.0
0.0
0.0
0.0
0.0
0.0
0.0
0.0
0.0
0.0
0.0
0.0
0.0
0.0
0.0
0.0
0.0
0.0
0.0
0.0
0.0
0.0
0.0
0.0
0.0
0.0
0.0
0.0
0.0
0.0
0.0
0.0
0.0
0.0
0.0
0.0
0.0
0.0
0.0
0.0
0.0
0.0
0.0
0.0
3.59e-19
-1.516e-18
2.441e-18
0.0
0.0
0.0
0.0
0.0
0.0
0.0
0.0
0.0
0.0
-1.357e-17
0.0
1.207e-17
0.0
-6.114e-18
0.0
0.0
0.0
0.0
0.0
0.0
-2.398e-17
0.0
0.0
0.0
-9.001e-18
0.0
0.0
-4.709e-18
4.989e-18
0.0
1.661e-17
0.0
0.0
0.0
0.0
0.0
0.0
0.0
0.0
0.0
0.0
0.0
0.0
0.0
0.0
0.0
0.0
0.0
0.0
0.0
0.0
0.0
0.0
0.0
0.0
0.0
0.0
0.0
0.0
0.0
0.0
0.0
0.0
0.0
0.0
0.0
0.0
0.0
2.052e-19
0.0
0.0
0.0
0.0
0.0
0.0
0.0
0.0
0.0
0.0
0.0
-3.008e-18
7.935e-19
3.35e-18
-4.216e-19
0.0
0.0
0.0
0.0
0.0
-3.376e-18
-6.012e-18
5.711e-18
0.0
-1.559e-19
6.764e-18
0.0
-1.281e-17
-2.404e-18
0.0
0.0
-1.206e-17
0.0
0.0
0.0
0.0
0.0
0.0
0.0
0.0
0.0
0.0
0.0
0.0
0.0
0.0
0.0
0.0
0.0
0.0
0.0
0.0
0.0
0.0
0.0
0.0
0.0
0.0
0.0
0.0
0.0
0.0
0.0
0.0
0.0
0.0
0.0
0.0
0.0
0.0
0.0
0.0
0.0
0.0
0.0
0.0
0.0
0.0
0.0
0.0
0.0
0.0
0.0
0.0
0.0
0.0
0.0
0.0
0.0
0.0
0.0
0.0
-1.719e-18
-6.876e-18
0.0
0.0
0.0
0.0
0.0
0.0
0.0
0.0
0.0
0.0
-1.286e-18
3.043e-18
8.999e-18
0.0
-3.719e-18
0.0
4.648e-20
-1.431e-18
0.0
-1.924e-20
-2.25e-18
0.0
2.187e-18
0.0
7.677e-19
7.243e-19
0.0
3.635e-18
-9.367e-19
0.0
-3.19e-18
-5.635e-18
-1.255e-18
0.0
-8.608e-19
0.0
-1.576e-18
3.467e-19
-1.213e-19
2.138e-18
-7.634e-19
0.0
0.0
2.218e-18
0.0
-7.634e-18
0.0
0.0
0.0
0.0
0.0
0.0
0.0
0.0
0.0
0.0
0.0
0.0
0.0
0.0
0.0
0.0
0.0
0.0
0.0
0.0
0.0
0.0
0.0
0.0
0.0
0.0
0.0
0.0
-2.051e-18
4.731e-19
0.0
2.579e-18
0.0
0.0
0.0
0.0
0.0
0.0
0.0
0.0
0.0
0.0
0.0
0.0
0.0
0.0
0.0
0.0
-7.329e-18
0.0
3.148e-21
-3.008e-18
0.0
1.527e-18
0.0
-1.697e-18
0.0
0.0
1.955e-19
0.0
-1.636e-18
-2.283e-21
0.0
-1.018e-18
-1.298e-18
3.645e-19
0.0
0.0
-3.828e-18
0.0
0.0
-1.72e-18
0.0
0.0
0.0
0.0
0.0
0.0
0.0
0.0
0.0
0.0
0.0
0.0
0.0
0.0
0.0
0.0
0.0
0.0
4.477e-18
0.0
0.0
0.0
0.0
0.0
0.0
0.0
0.0
0.0
0.0
0.0
0.0
0.0
0.0
-1.122e-17
6.752e-18
0.0
0.0
0.0
0.0
0.0
0.0
0.0
0.0
0.0
0.0
0.0
0.0
0.0
0.0
0.0
0.0
0.0
0.0
0.0
0.0
0.0
0.0
0.0
0.0
0.0
-7.84e-19
3.541e-18
-1.119e-17
3.029e-18
1.598e-18
-6.315e-18
0.0
0.0
0.0
0.0
0.0
1.245e-18
-2.62e-18
2.841e-18
0.0
-2.363e-19
3.049e-18
6.419e-18
2.659e-18
7.213e-19
0.0
0.0
-1.283e-18
0.0
0.0
0.0
0.0
0.0
0.0
0.0
0.0
0.0
0.0
0.0
0.0
0.0
0.0
0.0
0.0
0.0
0.0
0.0
0.0
0.0
0.0
0.0
0.0
0.0
0.0
0.0
0.0
0.0
0.0
0.0
0.0
-2.833e-18
0.0
-9.515e-19
-7.541e-18
0.0
0.0
0.0
0.0
0.0
0.0
0.0
0.0
0.0
-1.007e-17
0.0
0.0
0.0
0.0
0.0
0.0
0.0
0.0
0.0
0.0
0.0
0.0
0.0
0.0
1.0
1.0
1.0
1.0
1.0
1.0
1.0
1.0
1.0
1.0
1.0
1.0
1.0
1.0
1.0
1.0
1.0
1.0
1.0
1.0
1.0
1.0
1.0
1.0
1.0
1.0
1.0
1.0
1.0
1.0
1.0
1.0
1.0
1.0
1.0
1.0
1.0
1.0
1.0
1.0
1.0
1.0
1.0
1.0
1.0
1.0
1.0
1.0
1.0
1.0
1.0
1.0
1.0
1.0
1.0
1.0
1.0
1.0
1.0
1.0
1.0
1.0
1.0
1.0
1.0
1.0
1.0
1.0
1.0
1.0
1.0
1.0
1.0
1.0
1.0
1.0
1.0
1.0
1.0
1.0
1.0
1.0
1.0
1.0
1.0
1.0
1.0
1.0
1.0
1.0
1.0
1.0
1.0
1.0
1.0
1.0
1.0
1.0
1.0
1.0
1.0
1.0
1.0
1.0
1.0
1.0
1.0
1.0
1.0
1.0
1.0
1.0
1.0
1.0
1.0
1.0
1.0
1.0
1.0
1.0
1.0
1.0
1.0
1.0
1.0
1.0
1.0
1.0
1.0
1.0
1.0
1.0
1.0
1.0
1.0
1.0
1.0
1.0
1.0
1.0
1.0
1.0
1.0
1.0
1.0
1.0
1.0
1.0
1.0
1.0
1.0
1.0
1.0
1.0
1.0
1.0
1.0
1.0
1.0
1.0
1.0
1.0
1.0
1.0
1.0
1.0
1.0
1.0
1.0
1.0
1.0
1.0
1.0
1.0
1.0
1.0
1.0
1.0
1.0
1.0
1.0
1.0
1.0
1.0
1.0
1.0
1.0
1.0
1.0
1.0
1.0
1.0
1.0
1.0
1.0
1.0
1.0
1.0
1.0
1.0
1.0
1.0
1.0
1.0
1.0
1.0
1.0
1.0
1.0
1.0
1.0
1.0
1.0
1.0
1.0
1.0
1.0
1.0
1.0
1.0
1.0
1.0
1.0
1.0
1.0
1.0
1.0
1.0
1.0
1.0
1.0
1.0
1.0
1.0
1.0
1.0
1.0
1.0
1.0
1.0
1.0
1.0
1.0
1.0
1.0
1.0
1.0
1.0
1.0
1.0
1.0
1.0
1.0
1.0
1.0
1.0
1.0
1.0
1.0
1.0
1.0
1.0
1.0
1.0
1.0
1.0
1.0
1.0
1.0
1.0
1.0
1.0
1.0
1.0
1.0
1.0
1.0
1.0
1.0
1.0
1.0
1.0
1.0
1.0
1.0
1.0
1.0
1.0
0.343
0.346
0.343
0.363
0.373
0.173
0.353
0.189
0.546
0.198
0.532
0.42
0.581
0.143
0.136
0.405
0.198
0.581
0.148
0.209
0.413
0.169
0.637
0.118
0.136
0.338
0.47
0.337
0.592
0.679
0.235
0.131
0.328
0.652
0.098
0.097
0.454
0.653
0.714
0.226
0.486
0.274
0.369
0.117
0.466
0.226
0.477
0.094
0.466
0.158
0.242
0.661
0.253
0.239
0.503
0.103
0.11
0.087
0.462
0.251
0.285
0.091
0.779
0.067
0.658
0.709
0.451
0.064
0.169
0.25
0.11
0.774
0.247
0.396
0.379
0.491
0.068
0.393
0.221
0.235
0.066
0.392
0.734
0.637
0.181
0.449
0.503
0.523
0.064
0.457
0.217
0.652
0.247
0.188
0.12
0.522
0.447
0.432
0.064
0.293
0.172
0.77
0.093
0.449
0.08
0.263
0.743
0.306
0.136
0.074
0.439
0.632
0.054
0.734
0.247
0.06
0.171
0.617
0.498
0.438
0.192
0.193
0.574
0.106
0.8
0.248
0.316
0.154
0.155
0.857
0.227
0.466
0.559
0.545
0.512
0.621
0.249
0.242
0.15
0.295
0.18
0.227
0.266
0.202
0.177
0.18
0.14
0.284
0.28
0.346
0.392
0.387
0.346
0.259
0.211
0.298
0.324
0.29
0.291
0.168
0.185
0.221
0.133
0.352
0.222
0.222
0.298
0.116
0.082
0.136
0.142
0.116
0.099
0.1
0.521
0.576
0.615
0.055
0.091
0.032
0.027
0.063
0.034
0.39
0.135
0.135
0.081
0.419
0.557
0.492
0.058
0.594
0.706
0.832
0.543
0.726
0.427
0.366
0.461
0.033
0.226
0.495
0.226
0.066
0.062
0.107
0.212
0.087
0.564
0.804
0.781
0.662
0.878
0.491
0.392
0.032
0.067
0.032
0.832
0.047
0.126
0.074
0.031
0.297
0.307
0.361
0.091
0.852
0.845
0.045
0.092
0.044
0.657
0.82
0.079
0.047
0.032
0.209
0.468
0.222
0.604
0.516
0.807
0.719
0.886
0.73
0.652
0.235
0.395
0.842
0.656
0.033
0.064
0.029
0.354
0.149
0.034
0.702
0.736
0.042
0.569
0.518
0.25
0.536
0.262
0.069
0.033
0.41
0.464
0.342
0.283
0.293
0.69
0.553
0.047
0.1
0.049
0.261
0.796
0.475
0.56
0.447
0.033
0.046
0.034
0.084
0.044
0.279
0.226
0.047
0.031
0.411
0.312
0.322
0.128
0.49
0.387
0.81
0.823
0.207
0.288
0.083
0.033
0.105
0.134
0.858
0.412
0.394
0.856
0.731
0.889
0.718
0.251
0.203
0.226
0.655
0.602
0.546
0.118
0.21
0.089
0.232
0.093
0.085
0.311
0.241
0.455
0.516
0.213
0.234
0.188
0.149
0.051
0.674
0.707
0.387
0.388
0.709
0.73
0.24
0.172
0.18
0.88
0.057
0.129
0.031
0.082
0.697
0.736
0.186
0.313
0.332
0.375
0.091
0.036
0.08
0.522
0.619
0.395
0.182
0.237
0.281
0.122
0.055
0.134
0.174
0.446
0.558
0.405
0.436
0.409
0.155
0.175
0.223
0.136
0.141
0.189
0.09
0.227
0.416
0.672
0.248
0.535
0.259
0.159
0.122
0.094
0.104
0.879
0.884
0.731
0.764
0.319
0.745
0.179
0.138
0.118
0.16
0.814
0.563
0.532
0.707
0.628
0.755
0.743
0.433
0.663
0.514
0.334
0.097
0.1
0.468
0.118
0.308
0.263
0.291
0.83
0.816
0.103
0.221
0.552
0.121
0.21
0.223
0.12
0.136
0.146
0.378
0.469
0.672
0.824
0.052
0.055
0.152
0.748
0.53
0.627
0.23
0.108
0.525
0.544
0.47
0.442
0.556
0.862
0.369
0.378
0.336
0.158
0.311
0.438
0.746
0.437
0.178
0.883
0.277
0.223
0.292
0.489
0.564
0.671
0.428
0.415
0.101
0.136
0.421
0.491
0.342
0.07
0.231
0.038
0.65
0.556
0.232
0.331
0.169
0.189
0.136
0.551
0.19
0.173
0.513
0.136
0.609
0.536
0.311
0.307
0.256
0.17
0.143
0.611
0.131
0.182
0.565
0.477
0.193
0.37
0.298
0.345
0.448
0.364
0.412
0.191
0.206
0.161
0.479
0.897
0.797
0.106
0.052
0.06
0.037
0.093
0.387
0.343
0.385
0.242
0.121
0.18
0.157
0.225
0.246
0.064
0.104
0.433
0.544
0.712
0.706
0.42
0.044
0.04
0.711
0.071
0.027
0.051
0.115
0.205
0.219
0.104
0.756
0.242
0.282
0.309
0.316
0.244
0.197
0.146
0.03
0.096
0.2
0.211
0.898
0.076
0.532
0.431
0.185
0.175
0.17
0.055
0.186
0.25
0.341
0.329
0.644
0.822
0.929
0.298
0.929
0.764
0.109
0.15
0.638
0.483
0.137
0.275
0.777
0.508
0.209
0.183
0.797
0.715
0.262
0.448
0.313
0.457
0.504
0.495
0.511
0.553
0.472
0.517
0.604
0.597
0.546
0.565
0.602
0.529
0.582
0.479
0.638
0.202
0.199
0.155
0.246
0.194
0.299
0.297
0.188
0.144
0.212
0.157
0.268
0.237
0.326
0.262
0.202
0.198
0.216
0.186
0.246
0.234
0.256
0.277
0.252
0.219
0.157
0.159
0.139
0.179
0.159
0.199
0.201
0.158
0.139
0.313
0.314
0.346
0.283
0.312
0.255
0.252
0.308
0.343
0.368
0.369
0.346
0.391
0.367
0.416
0.412
0.362
0.343
0.224
0.235
0.201
0.27
0.244
0.297
0.219
0.33
0.313
0.344
0.283
0.295
0.267
0.304
0.318
0.317
0.317
0.292
0.314
0.266
0.266
0.183
0.194
0.21
0.177
0.203
0.152
0.16
0.211
0.231
0.069
0.177
0.108
0.24
0.29
0.193
0.298
0.409
0.343
0.206
0.241
0.259
0.279
0.238
0.276
0.318
0.144
0.126
0.155
0.099
0.108
0.09
0.074
0.091
0.117
0.169
0.156
0.129
0.141
0.116
0.104
0.126
0.12
0.118
0.119
0.101
0.117
0.082
0.082
0.535
0.567
0.581
0.549
0.597
0.505
0.529
0.626
0.648
0.027
0.044
0.016
0.073
0.061
0.085
0.104
0.078
0.048
0.013
0.031
0.017
0.045
0.048
0.04
0.059
0.066
0.051
0.18
0.065
0.303
0.258
0.432
0.343
0.211
0.154
0.126
0.108
0.099
0.116
0.089
0.073
0.389
0.456
0.42
0.486
0.528
0.445
0.511
0.605
0.57
0.027
0.028
0.057
0.028
0.087
0.628
0.682
0.577
0.649
0.528
0.665
0.727
0.923
0.778
0.861
0.683
0.639
0.729
0.58
0.506
0.595
0.478
0.444
0.496
0.396
0.412
0.38
0.352
0.379
0.426
0.016
0.016
0.017
0.034
0.05
0.108
0.23
0.112
0.359
0.355
0.354
0.499
0.483
0.343
0.031
0.03
0.032
0.064
0.033
0.099
0.095
0.052
0.098
0.042
0.157
0.148
0.165
0.22
0.201
0.136
0.768
0.897
0.642
0.683
0.519
0.603
0.717
0.886
0.829
0.943
0.724
0.765
0.683
0.627
0.698
0.808
0.512
0.459
0.44
0.41
0.47
0.421
0.364
0.016
0.033
0.016
0.05
0.049
0.049
0.067
0.066
0.048
0.905
0.822
0.913
0.737
0.921
0.024
0.061
0.036
0.085
0.1
0.07
0.109
0.142
0.115
0.016
0.015
0.016
0.032
0.047
0.32
0.328
0.353
0.303
0.334
0.274
0.278
0.338
0.367
0.044
0.044
0.043
0.09
0.139
0.925
0.923
0.851
0.921
0.781
0.777
0.919
0.022
0.045
0.022
0.069
0.068
0.069
0.094
0.09
0.066
0.649
0.741
0.741
0.828
0.659
0.737
0.907
0.038
0.04
0.037
0.077
0.119
0.023
0.04
0.016
0.065
0.057
0.072
0.049
0.1
0.218
0.109
0.337
0.339
0.329
0.468
0.463
0.337
0.576
0.559
0.532
0.583
0.539
0.63
0.497
0.898
0.848
0.943
0.763
0.798
0.726
0.687
0.749
0.83
0.634
0.597
0.671
0.691
0.706
0.753
0.711
0.111
0.113
0.234
0.115
0.36
0.37
0.368
0.369
0.395
0.422
0.917
0.814
0.746
0.716
0.773
0.684
0.626
0.017
0.031
0.014
0.048
0.047
0.049
0.065
0.062
0.044
0.185
0.079
0.293
0.251
0.403
0.307
0.211
0.017
0.017
0.016
0.034
0.051
0.844
0.722
0.871
0.587
0.596
0.573
0.599
0.021
0.02
0.021
0.043
0.064
0.493
0.544
0.471
0.619
0.589
0.65
0.558
0.122
0.262
0.134
0.396
0.396
0.383
0.538
0.52
0.382
0.034
0.016
0.051
0.051
0.069
0.069
0.05
0.376
0.402
0.438
0.427
0.447
0.475
0.452
0.345
0.317
0.319
0.312
0.289
0.337
0.305
0.261
0.266
0.663
0.619
0.596
0.642
0.574
0.716
0.51
0.023
0.048
0.024
0.073
0.075
0.069
0.096
0.102
0.076
0.241
0.229
0.251
0.273
0.294
0.016
0.016
0.033
0.894
0.904
0.819
0.914
0.704
0.422
0.462
0.41
0.517
0.502
0.531
0.577
0.542
0.485
0.016
0.04
0.023
0.056
0.064
0.049
0.071
0.017
0.04
0.058
0.065
0.051
0.076
0.091
0.023
0.022
0.046
0.021
0.067
0.629
0.687
0.659
0.237
0.252
0.213
0.294
0.266
0.323
0.239
0.022
0.023
0.046
0.023
0.07
0.016
0.032
0.016
0.048
0.015
0.417
0.366
0.369
0.36
0.318
0.403
0.352
0.273
0.277
0.068
0.063
0.073
0.14
0.195
0.463
0.505
0.453
0.54
0.441
0.381
0.43
0.436
0.483
0.391
0.9
0.903
0.82
0.907
0.728
0.737
0.911
0.307
0.352
0.263
0.247
0.223
0.19
0.227
0.04
0.016
0.064
0.057
0.09
0.075
0.049
0.126
0.12
0.142
0.098
0.112
0.084
0.126
0.104
0.108
0.22
0.937
0.872
0.931
0.794
0.926
0.378
0.368
0.386
0.404
0.391
0.431
0.421
0.925
0.856
0.793
0.789
0.793
0.735
0.725
0.944
0.848
0.799
0.763
0.833
0.749
0.685
0.264
0.239
0.25
0.227
0.216
0.237
0.213
0.193
0.203
0.619
0.598
0.565
0.629
0.576
0.686
0.656
0.551
0.525
0.057
0.104
0.046
0.166
0.148
0.182
0.231
0.189
0.13
0.183
0.205
0.209
0.227
0.236
0.122
0.128
0.252
0.105
0.09
0.101
0.078
0.074
0.08
0.07
0.252
0.219
0.286
0.275
0.321
0.299
0.263
0.454
0.485
0.483
0.483
0.515
0.452
0.549
0.112
0.117
0.107
0.226
0.102
0.334
0.351
0.199
0.169
0.179
0.156
0.138
0.174
0.121
0.025
0.025
0.024
0.051
0.077
0.648
0.626
0.668
0.697
0.725
0.862
0.727
0.853
0.579
0.846
0.358
0.389
0.357
0.42
0.421
0.417
0.419
0.847
0.852
0.725
0.858
0.582
0.597
0.865
0.245
0.21
0.214
0.205
0.176
0.233
0.199
0.144
0.148
0.939
0.938
0.941
0.886
0.826
0.028
0.062
0.093
0.096
0.087
0.125
0.131
0.015
0.04
0.056
0.064
0.048
0.074
0.088
0.843
0.852
0.723
0.863
0.561
0.587
0.875
0.153
0.179
0.16
0.206
0.166
0.33
0.343
0.362
0.324
0.354
0.294
0.303
0.363
0.387
0.044
0.017
0.071
0.063
0.098
0.083
0.054
0.041
0.039
0.043
0.086
0.123
0.528
0.569
0.575
0.561
0.612
0.514
0.666
0.37
0.369
0.393
0.365
0.421
0.176
0.204
0.209
0.232
0.188
0.214
0.26
0.312
0.298
0.267
0.281
0.25
0.059
0.028
0.092
0.088
0.127
0.117
0.083
0.016
0.016
0.032
0.155
0.174
0.135
0.154
0.116
0.153
0.174
0.491
0.454
0.483
0.418
0.474
0.449
0.379
0.525
0.479
0.607
0.508
0.431
0.392
0.377
0.406
0.424
0.416
0.457
0.442
0.176
0.188
0.211
0.165
0.199
0.133
0.142
0.21
0.236
0.162
0.139
0.165
0.114
0.116
0.111
0.118
0.16
0.155
0.183
0.149
0.218
0.171
0.24
0.105
0.156
0.043
0.14
0.211
0.707
0.83
0.571
0.549
0.427
0.4
0.522
0.123
0.257
0.128
0.389
0.395
0.375
0.525
0.534
0.39
0.151
0.14
0.133
0.147
0.128
0.166
0.11
0.044
0.045
0.093
0.046
0.143
0.113
0.124
0.103
0.094
0.086
0.938
0.939
0.884
0.94
0.823
0.826
0.942
0.861
0.757
0.883
0.636
0.649
0.607
0.643
0.016
0.016
0.033
0.331
0.309
0.343
0.285
0.355
0.016
0.016
0.034
0.865
0.812
0.794
0.759
0.728
0.177
0.157
0.158
0.137
0.181
0.159
0.117
0.128
0.139
0.148
0.128
0.149
0.108
0.171
0.904
0.762
0.684
0.631
0.731
0.611
0.511
0.474
0.553
0.617
0.636
0.594
0.687
0.723
0.625
0.579
0.674
0.678
0.68
0.876
0.757
0.869
0.645
0.639
0.637
0.621
0.169
0.181
0.191
0.455
0.395
0.496
0.338
0.533
0.817
0.738
0.735
0.663
0.66
0.458
0.422
0.372
0.476
0.382
0.573
0.292
0.116
0.099
0.08
0.082
0.078
0.118
0.11
0.092
0.1
0.083
0.492
0.506
0.475
0.453
0.431
0.065
0.061
0.127
0.057
0.181
0.324
0.3
0.314
0.285
0.278
0.292
0.27
0.256
0.269
0.915
0.911
0.827
0.907
0.745
0.736
0.904
0.053
0.111
0.16
0.172
0.148
0.205
0.235
0.609
0.608
0.557
0.603
0.503
0.135
0.114
0.101
0.093
0.108
0.191
0.217
0.198
0.236
0.243
0.229
0.248
0.144
0.129
0.152
0.106
0.113
0.097
0.119
0.073
0.179
0.257
0.295
0.22
0.335
0.422
0.05
0.047
0.098
0.403
0.431
0.44
0.46
0.478
0.824
0.911
0.744
0.745
0.67
0.666
0.737
0.027
0.028
0.026
0.054
0.025
0.08
0.082
0.175
0.148
0.125
0.121
0.128
0.733
0.875
0.603
0.617
0.619
0.601
0.653
0.553
0.577
0.508
0.552
0.6
0.119
0.057
0.182
0.169
0.247
0.212
0.154
0.468
0.538
0.48
0.6
0.605
0.587
0.604
0.524
0.512
0.57
0.457
0.498
0.418
0.405
0.481
0.54
0.845
0.928
0.763
0.784
0.801
0.05
0.053
0.102
0.354
0.338
0.351
0.321
0.383
0.412
0.377
0.447
0.41
0.375
0.349
0.372
0.316
0.395
0.28
0.191
0.178
0.203
0.169
0.137
0.357
0.373
0.423
0.325
0.385
0.267
0.449
0.863
0.795
0.81
0.731
0.759
0.209
0.086
0.332
0.307
0.455
0.412
0.275
0.94
0.941
0.889
0.943
0.829
0.309
0.281
0.25
0.253
0.246
0.221
0.225
0.347
0.303
0.251
0.26
0.239
0.56
0.599
0.52
0.527
0.479
0.495
0.53
0.695
0.55
0.57
0.625
0.664
0.711
0.699
0.72
0.403
0.437
0.43
0.395
0.423
0.389
0.458
0.451
0.462
0.441
0.148
0.166
0.129
0.119
0.11
0.091
0.107
0.481
0.518
0.444
0.455
0.409
0.431
0.464
0.315
0.383
0.25
0.274
0.298
0.035
0.088
0.123
0.144
0.103
0.506
0.479
0.492
0.201
0.225
0.203
0.284
0.26
0.254
0.237
0.224
0.019
0.049
0.069
0.079
0.059
0.591
0.544
0.64
0.602
0.691
0.611
0.565
0.29
0.343
0.241
0.28
0.195
0.269
0.319
0.143
0.153
0.127
0.179
0.162
0.197
0.207
0.171
0.145
0.766
0.638
0.674
0.511
0.587
0.191
0.181
0.2
0.182
0.208
0.172
0.164
0.546
0.492
0.461
0.44
0.48
0.127
0.153
0.163
0.18
0.146
0.595
0.561
0.572
0.526
0.621
0.582
0.492
0.343
0.339
0.343
0.31
0.341
0.279
0.277
0.07
0.067
0.142
0.232
0.222
0.245
0.21
0.28
0.172
0.157
0.187
0.157
0.202
0.139
0.127
0.607
0.634
0.587
0.658
0.565
0.161
0.186
0.137
0.156
0.112
0.151
0.177
0.252
0.266
0.295
0.506
0.464
0.551
0.519
0.598
0.531
0.488
0.094
0.097
0.09
0.188
0.287
0.357
0.333
0.32
0.345
0.309
0.382
0.275
0.381
0.433
0.395
0.489
0.305
0.353
0.548
0.456
0.504
0.403
0.349
0.377
0.337
0.407
0.324
0.367
0.388
0.345
0.388
0.433
0.167
0.175
0.199
0.182
0.216
0.224
0.189
0.155
0.141
0.146
0.127
0.166
0.908
0.824
0.906
0.53
0.512
0.497
0.492
0.465
0.948
0.892
0.846
0.84
0.848
0.8
0.79
0.105
0.125
0.087
0.087
0.087
0.026
0.025
0.027
0.054
0.081
0.287
0.262
0.256
0.101
0.084
0.084
0.028
0.029
0.059
0.03
0.09
0.019
0.045
0.064
0.073
0.056
0.084
0.101
0.378
0.354
0.402
0.365
0.426
0.351
0.33
0.375
0.36
0.403
0.345
0.426
0.127
0.258
0.125
0.122
0.121
0.249
0.118
0.37
0.154
0.146
0.128
0.138
0.104
0.869
0.745
0.864
0.132
0.117
0.107
0.161
0.185
0.205
0.211
0.198
0.183
0.191
0.218
0.164
0.197
0.133
0.231
0.291
0.269
0.268
0.247
0.244
0.073
0.031
0.114
0.107
0.099
0.378
0.404
0.394
0.154
0.126
0.13
0.099
0.107
0.427
0.482
0.487
0.54
0.436
0.49
0.601
0.75
0.743
0.754
0.71
0.755
0.671
0.669
0.381
0.395
0.434
0.407
0.461
0.05
0.022
0.079
0.074
0.068
0.019
0.019
0.039
0.02
0.06
0.668
0.696
0.639
0.68
0.724
0.035
0.014
0.057
0.049
0.079
0.063
0.041
0.025
0.056
0.083
0.087
0.078
0.111
0.118
0.107
0.11
0.103
0.215
0.1
0.315
0.326
0.111
0.12
0.112
0.129
0.096
0.877
0.879
0.766
0.871
0.757
0.875
0.63
0.88
0.013
0.014
0.027
0.291
0.312
0.269
0.262
0.248
0.235
0.254
0.313
0.276
0.258
0.341
0.347
0.314
0.351
0.278
0.28
0.354
0.847
0.783
0.767
0.277
0.24
0.315
0.28
0.246
0.408
0.436
0.449
0.198
0.174
0.172
0.149
0.195
0.169
0.124
0.015
0.015
0.015
0.03
0.045
0.145
0.116
0.125
0.088
0.103
0.158
0.141
0.164
0.174
0.18
0.206
0.186
0.226
0.232
0.191
0.948
0.948
0.9
0.948
0.848
0.193
0.214
0.22
0.201
0.196
0.217
0.037
0.053
0.06
0.068
0.084
0.468
0.525
0.592
0.585
0.595
0.016
0.016
0.032
0.095
0.079
0.088
0.034
0.033
0.068
0.023
0.022
0.046
0.486
0.424
0.545
0.489
0.435
0.206
0.204
0.187
0.201
0.169
0.018
0.018
0.037
0.204
0.173
0.202
0.145
0.142
0.146
0.138
0.483
0.495
0.544
0.026
0.027
0.054
0.028
0.081
0.158
0.189
0.218
0.219
0.216
0.249
0.25
0.379
0.37
0.385
0.336
0.388
0.295
0.289
0.309
0.279
0.279
0.387
0.343
0.389
0.599
0.613
0.584
0.629
0.676
0.906
0.964
0.851
0.874
0.799
0.841
0.893
0.315
0.355
0.277
0.262
0.245
0.964
0.932
0.964
0.893
0.964
0.72
0.748
0.793
0.775
0.809
0.106
0.096
0.087
0.659
0.694
0.708
0.641
0.69
0.656
0.218
0.239
0.217
0.127
0.147
0.108
0.129
0.088
0.131
0.152
0.114
0.123
0.101
0.046
0.074
0.067
0.201
0.301
0.311
0.29
0.261
0.268
0.601
0.638
0.565
0.6
0.635
0.233
0.348
0.362
0.461
0.498
0.068
0.11
0.095
0.153
0.122
0.732
0.616
0.593
0.42
0.444
0.454
0.32
0.308
0.287
0.295
0.255
0.882
0.82
0.836
0.761
0.79
0.523
0.532
0.501
0.54
0.478
0.499
0.489
0.52
0.189
0.155
0.172
0.226
0.227
0.208
0.228
0.191
0.192
0.192
0.21
0.209
0.213
0.18
0.215
0.151
0.157
0.155
0.186
0.893
0.86
0.827
0.827
0.766
0.676
0.675
0.674
0.715
0.757
0.243
0.235
0.25
0.269
0.289
0.737
0.753
0.781
0.465
0.498
0.419
0.53
0.369
0.462
0.415
0.499
0.322
0.266
0.286
0.165
0.167
0.183
0.259
0.287
0.284
0.315
0.31
0.387
0.348
0.35
0.704
0.746
0.733
0.453
0.476
0.471
0.481
0.5
0.462
0.485
0.524
0.52
0.488
0.508
0.532
0.528
0.535
0.556
0.549
0.469
0.491
0.494
0.514
0.475
0.496
0.538
0.575
0.571
0.578
0.601
0.581
0.628
0.624
0.563
0.574
0.592
0.556
0.584
0.528
0.538
0.593
0.612
0.521
0.547
0.555
0.574
0.537
0.563
0.602
0.495
0.504
0.487
0.512
0.463
0.61
0.63
0.59
0.617
0.645
0.18
0.178
0.157
0.201
0.177
0.225
0.224
0.175
0.153
0.248
0.222
0.22
0.197
0.244
0.218
0.172
0.274
0.273
0.298
0.271
0.326
0.325
0.269
0.169
0.147
0.191
0.166
0.215
0.162
0.14
0.173
0.147
0.2
0.184
0.227
0.196
0.168
0.255
0.24
0.253
0.224
0.282
0.266
0.208
0.283
0.311
0.297
0.34
0.311
0.22
0.191
0.249
0.232
0.279
0.244
0.214
0.183
0.192
0.177
0.207
0.201
0.212
0.222
0.209
0.194
0.236
0.231