# vtk DataFile Version 3.0

ASCII
DATASET UNSTRUCTURED_GRID
POINTS 10201 float
0.0 0.0 0.0
0.02 0.0 0.0
0.04 0.0 0.0
0.06 0.0 0.0
0.08 0.0 0.0
0.1 0.0 0.0
0.12 0.0 0.0
0.14 0.0 0.0
0.16 0.0 0.0
0.18 0.0 0.0
0.2 0.0 0.0
0.22 0.0 0.0
0.24 0.0 0.0
0.26 0.0 0.0
0.28 0.0 0.0
0.3 0.0 0.0
0.32 0.0 0.0
0.34 0.0 0.0
0.36 0.0 0.0
0.38 0.0 0.0
0.4 0.0 0.0
0.42 0.0 0.0
0.44 0.0 0.0
0.46 0.0 0.0
0.48 0.0 0.0
0.5 0.0 0.0
0.52 0.0 0.0
0.54 0.0 0.0
0.56 0.0 0.0
0.58 0.0 0.0
0.6 0.0 0.0
0.62 0.0 0.0
0.64 0.0 0.0
0.66 0.0 0.0
0.68 0.0 0.0
0.7 0.0 0.0
0.72 0.0 0.0
0.74 0.0 0.0
0.76 0.0 0.0
0.78 0.0 0.0
0.8 0.0 0.0
0.82 0.0 0.0
0.84 0.0 0.0
0.86 0.0 0.0
0.88 0.0 0.0
0.9 0.0 0.0
0.92 0.0 0.0
0.94 0.0 0.0
0.96 0.0 0.0
0.98 0.0 0.0
1.0 0.0 0.0
1.02 0.0 0.0
1.04 0.0 0.0
1.06 0.0 0.0
1.08 0.0 0.0
1.1 0.0 0.0
1.12 0.0 0.0
1.14 0.0 0.0
1.16 0.0 0.0
1.18 0.0 0.0
1.2 0.0 0.0
1.22 0.0 0.0
1.24 0.0 0.0
1.26 0.0 0.0
1.28 0.0 0.0
1.3 0.0 0.0
1.32 0.0 0.0
1.34 0.0 0.0
1.36 0.0 0.0
1.38 0.0 0.0
1.4 0.0 0.0
1.42 0.0 0.0
1.44 0.0 0.0
1.46 0.0 0.0
1.48 0.0 0.0
1.5 0.0 0.0
1.52 0.0 0.0
1.54 0.0 0.0
1.56 0.0 0.0
1.58 0.0 0.0
1.6 0.0 0.0
1.62 0.0 0.0
1.64 0.0 0.0
1.66 0.0 0.0
1.68 0.0 0.0
1.7 0.0 0.0
1.72 0.0 0.0
1.74 0.0 0.0
1.76 0.0 0.0
1.78 0.0 0.0
1.8 0.0 0.0
1.82 0.0 0.0
1.84 0.0 0.0
1.86 0.0 0.0
1.88 0.0 0.0
1.9 0.0 0.0
1.92 0.0 0.0
1.94 0.0 0.0
1.96 0.0 0.0
1.98 0.0 0.0
2.0 0.0 0.0
0.0 0.02 0.0
0.02 0.02 0.0
0.04 0.02 0.0
0.06 0.02 0.0
0.08 0.02 0.0
0.1 0.02 0.0
0.12 0.02 0.0
0.14 0.02 0.0
0.16 0.02 0.0
0.18 0.02 0.0
0.2 0.02 0.0
0.22 0.02 0.0
0.24 0.02 0.0
0.26 0.02 0.0
0.28 0.02 0.0
0.3 0.02 0.0
0.32 0.02 0.0
0.34 0.02 0.0
0.36 0.02 0.0
0.38 0.02 0.0
0.4 0.02 0.0
0.42 0.02 0.0
0.44 0.02 0.0
0.46 0.02 0.0
0.48 0.02 0.0
0.5 0.02 0.0
0.52 0.02 0.0
0.54 0.02 0.0
0.56 0.02 0.0
0.58 0.02 0.0
0.6 0.02 0.0
0.62 0.02 0.0
0.64 0.02 0.0
0.66 0.02 0.0
0.68 0.02 0.0
0.7 0.02 0.0
0.72 0.02 0.0
0.74 0.02 0.0
0.76 0.02 0.0
0.78 0.02 0.0
0.8 0.02 0.0
0.82 0.02 0.0
0.84 0.02 0.0
0.86 0.02 0.0
0.88 0.02 0.0
0.9 0.02 0.0
0.92 0.02 0.0
0.94 0.02 0.0
0.96 0.02 0.0
0.98 0.02 0.0
1.0 0.02 0.0
1.02 0.02 0.0
1.04 0.02 0.0
1.06 0.02 0.0
1.08 0.02 0.0
1.1 0.02 0.0
1.12 0.02 0.0
1.14 0.02 0.0
1.16 0.02 0.0
1.18 0.02 0.0
1.2 0.02 0.0
1.22 0.02 0.0
1.24 0.02 0.0
1.26 0.02 0.0
1.28 0.02 0.0
1.3 0.02 0.0
1.32 0.02 0.0
1.34 0.02 0.0
1.36 0.02 0.0
1.38 0.02 0.0
1.4 0.02 0.0
1.42 0.02 0.0
1.44 0.02 0.0
1.46 0.02 0.0
1.48 0.02 0.0
1.5 0.02 0.0
1.52 0.02 0.0
1.54 0.02 0.0
1.56 0.02 0.0
1.58 0.02 0.0
1.6 0.02 0.0
1.62 0.02 0.0
1.64 0.02 0.0
1.66 0.02 0.0
1.68 0.02 0.0
1.7 0.02 0.0
1.72 0.02 0.0
1.74 0.02 0.0
1.76 0.02 0.0
1.78 0.02 0.0
1.8 0.02 0.0
1.82 0.02 0.0
1.84 0.02 0.0
1.86 0.02 0.0
1.88 0.02 0.0
1.9 0.02 0.0
1.92 0.02 0.0
1.94 0.02 0.0
1.96 0.02 0.0
1.98 0.02 0.0
2.0 0.02 0.0
0.0 0.04 0.0
0.02 0.04 0.0
0.04 0.04 0.0
0.06 0.04 0.0
0.08 0.04 0.0
0.1 0.04 0.0
0.12 0.04 0.0
0.14 0.04 0.0
0.16 0.04 0.0
0.18 0.04 0.0
0.2 0.04 0.0
0.22 0.04 0.0
0.24 0.04 0.0
0.26 0.04 0.0
0.28 0.04 0.0
0.3 0.04 0.0
0.32 0.04 0.0
0.34 0.04 0.0
0.36 0.04 0.0
0.38 0.04 0.0
0.4 0.04 0.0
0.42 0.04 0.0
0.44 0.04 0.0
0.46 0.04 0.0
0.48 0.04 0.0
0.5 0.04 0.0
0.52 0.04 0.0
0.54 0.04 0.0
0.56 0.04 0.0
0.58 0.04 0.0
0.6 0.04 0.0
0.62 0.04 0.0
0.64 0.04 0.0
0.66 0.04 0.0
0.68 0.04 0.0
0.7 0.04 0.0
0.72 0.04 0.0
0.74 0.04 0.0
0.76 0.04 0.0
0.78 0.04 0.0
0.8 0.04 0.0
0.82 0.04 0.0
0.84 0.04 0.0
0.86 0.04 0.0
0.88 0.04 0.0
0.9 0.04 0.0
0.92 0.04 0.0
0.94 0.04 0.0
0.96 0.04 0.0
0.98 0.04 0.0
1.0 0.04 0.0
1.02 0.04 0.0
1.04 0.04 0.0
1.06 0.04 0.0
1.08 0.04 0.0
1.1 0.04 0.0
1.12 0.04 0.0
1.14 0.04 0.0
1.16 0.04 0.0
1.18 0.04 0.0
1.2 0.04 0.0
1.22 0.04 0.0
1.24 0.04 0.0
1.26 0.04 0.0
1.28 0.04 0.0
1.3 0.04 0.0
1.32 0.04 0.0
1.34 0.04 0.0
1.36 0.04 0.0
1.38 0.04 0.0
1.4 0.04 0.0
1.42 0.04 0.0
1.44 0.04 0.0
1.46 0.04 0.0
1.48 0.04 0.0
1.5 0.04 0.0
1.52 0.04 0.0
1.54 0.04 0.0
1.56 0.04 0.0
1.58 0.04 0.0
1.6 0.04 0.0
1.62 0.04 0.0
1.64 0.04 0.0
1.66 0.04 0.0
1.68 0.04 0.0
1.7 0.04 0.0
1.72 0.04 0.0
1.74 0.04 0.0
1.76 0.04 0.0
1.78 0.04 0.0
1.8 0.04 0.0
1.82 0.04 0.0
1.84 0.04 0.0
1.86 0.04 0.0
1.88 0.04 0.0
1.9 0.04 0.0
1.92 0.04 0.0
1.94 0.04 0.0
1.96 0.04 0.0
1.98 0.04 0.0
2.0 0.04 0.0
0.0 0.06 0.0
0.02 0.06 0.0
0.04 0.06 0.0
0.06 0.06 0.0
0.08 0.06 0.0
0.1 0.06 0.0
0.12 0.06 0.0
0.14 0.06 0.0
0.16 0.06 0.0
0.18 0.06 0.0
0.2 0.06 0.0
0.22 0.06 0.0
0.24 0.06 0.0
0.26 0.06 0.0
0.28 0.06 0.0
0.3 0.06 0.0
0.32 0.06 0.0
0.34 0.06 0.0
0.36 0.06 0.0
0.38 0.06 0.0
0.4 0.06 0.0
0.42 0.06 0.0
0.44 0.06 0.0
0.46 0.06 0.0
0.48 0.06 0.0
0.5 0.06 0.0
0.52 0.06 0.0
0.54 0.06 0.0
0.56 0.06 0.0
0.58 0.06 0.0
0.6 0.06 0.0
0.62 0.06 0.0
0.64 0.06 0.0
0.66 0.06 0.0
0.68 0.06 0.0
0.7 0.06 0.0
0.72 0.06 0.0
0.74 0.06 0.0
0.76 0.06 0.0
0.78 0.06 0.0
0.8 0.06 0.0
0.82 0.06 0.0
0.84 0.06 0.0
0.86 0.06 0.0
0.88 0.06 0.0
0.9 0.06 0.0
0.92 0.06 0.0
0.94 0.06 0.0
0.96 0.06 0.0
0.98 0.06 0.0
1.0 0.06 0.0
1.02 0.06 0.0
1.04 0.06 0.0
1.06 0.06 0.0
1.08 0.06 0.0
1.1 0.06 0.0
1.12 0.06 0.0
1.14 0.06 0.0
1.16 0.06 0.0
1.18 0.06 0.0
1.2 0.06 0.0
1.22 0.06 0.0
1.24 0.06 0.0
1.26 0.06 0.0
1.28 0.06 0.0
1.3 0.06 0.0
1.32 0.06 0.0
1.34 0.06 0.0
1.36 0.06 0.0
1.38 0.06 0.0
1.4 0.06 0.0
1.42 0.06 0.0
1.44 0.06 0.0
1.46 0.06 0.0
1.48 0.06 0.0
1.5 0.06 0.0
1.52 0.06 0.0
1.54 0.06 0.0
1.56 0.06 0.0
1.58 0.06 0.0
1.6 0.06 0.0
1.62 0.06 0.0
1.64 0.06 0.0
1.66 0.06 0.0
1.68 0.06 0.0
1.7 0.06 0.0
1.72 0.06 0.0
1.74 0.06 0.0
1.76 0.06 0.0
1.78 0.06 0.0
1.8 0.06 0.0
1.82 0.06 0.0
1.84 0.06 0.0
1.86 0.06 0.0
1.88 0.06 0.0
1.9 0.06 0.0
1.92 0.06 0.0
1.94 0.06 0.0
1.96 0.06 0.0
1.98 0.06 0.0
2.0 0.06 0.0
0.0 0.08 0.0
0.02 0.08 0.0
0.04 0.08 0.0
0.06 0.08 0.0
0.08 0.08 0.0
0.1 0.08 0.0
0.12 0.08 0.0
0.14 0.08 0.0
0.16 0.08 0.0
0.18 0.08 0.0
0.2 0.08 0.0
0.22 0.08 0.0
0.24 0.08 0.0
0.26 0.08 0.0
0.28 0.08 0.0
0.3 0.08 0.0
0.32 0.08 0.0
0.34 0.08 0.0
0.36 0.08 0.0
0.38 0.08 0.0
0.4 0.08 0.0
0.42 0.08 0.0
0.44 0.08 0.0
0.46 0.08 0.0
0.48 0.08 0.0
0.5 0.08 0.0
0.52 0.08 0.0
0.54 0.08 0.0
0.56 0.08 0.0
0.58 0.08 0.0
0.6 0.08 0.0
0.62 0.08 0.0
0.64 0.08 0.0
0.66 0.08 0.0
0.68 0.08 0.0
0.7 0.08 0.0
0.72 0.08 0.0
0.74 0.08 0.0
0.76 0.08 0.0
0.78 0.08 0.0
0.8 0.08 0.0
0.82 0.08 0.0
0.84 0.08 0.0
0.86 0.08 0.0
0.88 0.08 0.0
0.9 0.08 0.0
0.92 0.08 0.0
0.94 0.08 0.0
0.96 0.08 0.0
0.98 0.08 0.0
1.0 0.08 0.0
1.02 0.08 0.0
1.04 0.08 0.0
1.06 0.08 0.0
1.08 0.08 0.0
1.1 0.08 0.0
1.12 0.08 0.0
1.14 0.08 0.0
1.16 0.08 0.0
1.18 0.08 0.0
1.2 0.08 0.0
1.22 0.08 0.0
1.24 0.08 0.0
1.26 0.08 0.0
1.28 0.08 0.0
1.3 0.08 0.0
1.32 0.08 0.0
1.34 0.08 0.0
1.36 0.08 0.0
1.38 0.08 0.0
1.4 0.08 0.0
1.42 0.08 0.0
1.44 0.08 0.0
1.46 0.08 0.0
1.48 0.08 0.0
1.5 0.08 0.0
1.52 0.08 0.0
1.54 0.08 0.0
1.56 0.08 0.0
1.58 0.08 0.0
1.6 0.08 0.0
1.62 0.08 0.0
1.64 0.08 0.0
1.66 0.08 0.0
1.68 0.08 0.0
1.7 0.08 0.0
1.72 0.08 0.0
1.74 0.08 0.0
1.76 0.08 0.0
1.78 0.08 0.0
1.8 0.08 0.0
1.82 0.08 0.0
1.84 0.08 0.0
1.86 0.08 0.0
1.88 0.08 0.0
1.9 0.08 0.0
1.92 0.08 0.0
1.94 0.08 0.0
1.96 0.08 0.0
1.98 0.08 0.0
2.0 0.08 0.0
0.0 0.1 0.0
0.02 0.1 0.0
0.04 0.1 0.0
0.06 0.1 0.0
0.08 0.1 0.0
0.1 0.1 0.0
0.12 0.1 0.0
0.14 0.1 0.0
0.16 0.1 0.0
0.18 0.1 0.0
0.2 0.1 0.0
0.22 0.1 0.0
0.24 0.1 0.0
0.26 0.1 0.0
0.28 0.1 0.0
0.3 0.1 0.0
0.32 0.1 0.0
0.34 0.1 0.0
0.36 0.1 0.0
0.38 0.1 0.0
0.4 0.1 0.0
0.42 0.1 0.0
0.44 0.1 0.0
0.46 0.1 0.0
0.48 0.1 0.0
0.5 0.1 0.0
0.52 0.1 0.0
0.54 0.1 0.0
0.56 0.1 0.0
0.58 0.1 0.0
0.6 0.1 0.0
0.62 0.1 0.0
0.64 0.1 0.0
0.66 0.1 0.0
0.68 0.1 0.0
0.7 0.1 0.0
0.72 0.1 0.0
0.74 0.1 0.0
0.76 0.1 0.0
0.78 0.1 0.0
0.8 0.1 0.0
0.82 0.1 0.0
0.84 0.1 0.0
0.86 0.1 0.0
0.88 0.1 0.0
0.9 0.1 0.0
0.92 0.1 0.0
0.94 0.1 0.0
0.96 0.1 0.0
0.98 0.1 0.0
1.0 0.1 0.0
1.02 0.1 0.0
1.04 0.1 0.0
1.06 0.1 0.0
1.08 0.1 0.0
1.1 0.1 0.0
1.12 0.1 0.0
1.14 0.1 0.0
1.16 0.1 0.0
1.18 0.1 0.0
1.2 0.1 0.0
1.22 0.1 0.0
1.24 0.1 0.0
1.26 0.1 0.0
1.28 0.1 0.0
1.3 0.1 0.0
1.32 0.1 0.0
1.34 0.1 0.0
1.36 0.1 0.0
1.38 0.1 0.0
1.4 0.1 0.0
1.42 0.1 0.0
1.44 0.1 0.0
1.46 0.1 0.0
1.48 0.1 0.0
1.5 0.1 0.0
1.52 0.1 0.0
1.54 0.1 0.0
1.56 0.1 0.0
1.58 0.1 0.0
1.6 0.1 0.0
1.62 0.1 0.0
1.64 0.1 0.0
1.66 0.1 0.0
1.68 0.1 0.0
1.7 0.1 0.0
1.72 0.1 0.0
1.74 0.1 0.0
1.76 0.1 0.0
1.78 0.1 0.0
1.8 0.1 0.0
1.82 0.1 0.0
1.84 0.1 0.0
1.86 0.1 0.0
1.88 0.1 0.0
1.9 0.1 0.0
1.92 0.1 0.0
1.94 0.1 0.0
1.96 0.1 0.0
1.98 0.1 0.0
2.0 0.1 0.0
0.0 0.12 0.0
0.02 0.12 0.0
0.04 0.12 0.0
0.06 0.12 0.0
0.08 0.12 0.0
0.1 0.12 0.0
0.12 0.12 0.0
0.14 0.12 0.0
0.16 0.12 0.0
0.18 0.12 0.0
0.2 0.12 0.0
0.22 0.12 0.0
0.24 0.12 0.0
0.26 0.12 0.0
0.28 0.12 0.0
0.3 0.12 0.0
0.32 0.12 0.0
0.34 0.12 0.0
0.36 0.12 0.0
0.38 0.12 0.0
0.4 0.12 0.0
0.42 0.12 0.0
0.44 0.12 0.0
0.46 0.12 0.0
0.48 0.12 0.0
0.5 0.12 0.0
0.52 0.12 0.0
0.54 0.12 0.0
0.56 0.12 0.0
0.58 0.12 0.0
0.6 0.12 0.0
0.62 0.12 0.0
0.64 0.12 0.0
0.66 0.12 0.0
0.68 0.12 0.0
0.7 0.12 0.0
0.72 0.12 0.0
0.74 0.12 0.0
0.76 0.12 0.0
0.78 0.12 0.0
0.8 0.12 0.0
0.82 0.12 0.0
0.84 0.12 0.0
0.86 0.12 0.0
0.88 0.12 0.0
0.9 0.12 0.0
0.92 0.12 0.0
0.94 0.12 0.0
0.96 0.12 0.0
0.98 0.12 0.0
1.0 0.12 0.0
1.02 0.12 0.0
1.04 0.12 0.0
1.06 0.12 0.0
1.08 0.12 0.0
1.1 0.12 0.0
1.12 0.12 0.0
1.14 0.12 0.0
1.16 0.12 0.0
1.18 0.12 0.0
1.2 0.12 0.0
1.22 0.12 0.0
1.24 0.12 0.0
1.26 0.12 0.0
1.28 0.12 0.0
1.3 0.12 0.0
1.32 0.12 0.0
1.34 0.12 0.0
1.36 0.12 0.0
1.38 0.12 0.0
1.4 0.12 0.0
1.42 0.12 0.0
1.44 0.12 0.0
1.46 0.12 0.0
1.48 0.12 0.0
1.5 0.12 0.0
1.52 0.12 0.0
1.54 0.12 0.0
1.56 0.12 0.0
1.58 0.12 0.0
1.6 0.12 0.0
1.62 0.12 0.0
1.64 0.12 0.0
1.66 0.12 0.0
1.68 0.12 0.0
1.7 0.12 0.0
1.72 0.12 0.0
1.74 0.12 0.0
1.76 0.12 0.0
1.78 0.12 0.0
1.8 0.12 0.0
1.82 0.12 0.0
1.84 0.12 0.0
1.86 0.12 0.0
1.88 0.12 0.0
1.9 0.12 0.0
1.92 0.12 0.0
1.94 0.12 0.0
1.96 0.12 0.0
1.98 0.12 0.0
2.0 0.12 0.0
0.0 0.14 0.0
0.02 0.14 0.0
0.04 0.14 0.0
0.06 0.14 0.0
0.08 0.14 0.0
0.1 0.14 0.0
0.12 0.14 0.0
0.14 0.14 0.0
0.16 0.14 0.0
0.18 0.14 0.0
0.2 0.14 0.0
0.22 0.14 0.0
0.24 0.14 0.0
0.26 0.14 0.0
0.28 0.14 0.0
0.3 0.14 0.0
0.32 0.14 0.0
0.34 0.14 0.0
0.36 0.14 0.0
0.38 0.14 0.0
0.4 0.14 0.0
0.42 0.14 0.0
0.44 0.14 0.0
0.46 0.14 0.0
0.48 0.14 0.0
0.5 0.14 0.0
0.52 0.14 0.0
[...]
POINT_DATA 10201
SCALARS discrete_temperature_sol double 1
LOOKUP_TABLE default
0.61
0.623
0.635
0.646
0.658
0.669
0.681
0.692
0.702
0.713
0.723
0.733
0.743
0.753
0.762
0.771
0.78
0.789
0.798
0.806
0.814
0.822
0.829
0.837
0.844
0.851
0.857
0.863
0.87
0.875
0.881
0.886
0.891
0.896
0.9
0.905
0.909
0.912
0.916
0.919
0.922
0.924
0.927
0.929
0.931
0.932
0.933
0.934
0.935
0.935
0.936
0.935
0.935
0.934
0.933
0.932
0.931
0.929
0.927
0.924
0.922
0.919
0.916
0.912
0.909
0.905
0.9
0.896
0.891
0.886
0.881
0.875
0.869
0.863
0.857
0.851
0.844
0.837
0.829
0.822
0.814
0.806
0.798
0.789
0.78
0.771
0.762
0.753
0.743
0.733
0.723
0.713
0.702
0.691
0.68
0.669
0.658
0.646
0.636
0.619
0.619
0.623
0.63
0.644
0.655
0.667
0.679
0.69
0.701
0.712
0.723
0.734
0.744
0.754
0.764
0.774
0.783
0.792
0.801
0.81
0.818
0.826
0.834
0.842
0.849
0.857
0.864
0.87
0.877
0.883
0.889
0.895
0.9
0.905
0.91
0.915
0.919
0.923
0.927
0.93
0.933
0.936
0.939
0.941
0.943
0.945
0.947
0.948
0.949
0.95
0.95
0.95
0.95
0.95
0.949
0.948
0.947
0.945
0.943
0.941
0.939
0.936
0.933
0.93
0.927
0.923
0.919
0.915
0.91
0.905
0.9
0.895
0.889
0.883
0.877
0.87
0.864
0.857
0.849
0.842
0.834
0.826
0.818
0.81
0.801
0.792
0.783
0.773
0.764
0.754
0.744
0.734
0.723
0.712
0.701
0.69
0.679
0.667
0.655
0.645
0.63
0.619
0.635
0.644
0.66
0.671
0.683
0.695
0.706
0.718
0.729
0.74
0.75
0.761
0.771
0.781
0.791
0.801
0.81
0.819
0.828
0.837
0.845
0.853
0.861
0.869
0.876
0.883
0.89
0.896
0.903
0.909
0.914
0.92
0.925
0.93
0.935
0.939
0.943
0.947
0.951
0.954
0.957
0.96
0.962
0.964
0.966
0.968
0.969
0.97
0.971
0.971
0.971
0.971
0.971
0.97
0.969
0.968
0.966
0.964
0.962
0.96
0.957
0.954
0.951
0.947
0.943
0.939
0.935
0.93
0.925
0.92
0.914
0.909
0.903
0.896
0.89
0.883
0.876
0.869
0.861
0.853
0.845
0.837
0.828
0.819
0.81
0.801
0.791
0.781
0.771
0.761
0.75
0.74
0.729
0.718
0.706
0.695
0.683
0.671
0.66
0.645
0.636
0.646
0.655
0.671
0.682
0.694
0.706
0.718
0.73
0.741
0.752
0.763
0.774
0.784
0.794
0.804
0.814
0.824
0.833
0.842
0.851
0.859
0.867
0.875
0.883
0.891
0.898
0.905
0.912
0.918
0.924
0.93
0.936
0.941
0.946
0.951
0.955
0.959
0.963
0.967
0.97
0.973
0.976
0.979
0.981
0.983
0.984
0.986
0.987
0.987
0.988
0.988
0.988
0.987
0.987
0.986
0.984
0.983
0.981
0.979
0.976
0.973
0.97
0.967
0.963
0.959
0.955
0.951
0.946
0.941
0.936
0.93
0.924
0.918
0.912
0.905
0.898
0.891
0.883
0.875
0.867
0.859
0.851
0.842
0.833
0.824
0.814
0.804
0.794
0.784
0.774
0.763
0.752
0.741
0.729
0.718
0.706
0.694
0.682
0.671
0.655
0.646
0.658
0.667
0.683
0.694
0.707
0.719
0.731
0.743
0.755
0.766
0.777
0.788
0.799
0.809
0.819
0.829
0.839
0.848
0.857
0.866
0.875
0.883
0.892
0.899
0.907
0.914
0.921
0.928
0.935
0.941
0.947
0.953
0.958
0.963
0.968
0.973
0.977
0.981
0.985
0.988
0.991
0.994
0.997
0.999
1.001
1.002
1.004
1.005
1.005
1.006
1.006
1.006
1.005
1.005
1.004
1.002
1.001
0.999
0.997
0.994
0.991
0.988
0.985
0.981
0.977
0.973
0.968
0.963
0.958
0.953
0.947
0.941
0.935
0.928
0.921
0.914
0.907
0.899
0.891
0.883
0.875
0.866
0.857
0.848
0.839
0.829
0.819
0.809
0.798
0.788
0.777
0.766
0.755
0.743
0.731
0.719
0.707
0.694
0.683
0.667
0.658
0.669
0.679
0.695
0.706
0.719
0.732
0.744
0.756
0.768
0.779
0.79
0.802
0.812
0.823
0.833
0.843
0.853
0.863
0.872
0.881
0.89
0.899
0.907
0.915
0.923
0.93
0.937
0.944
0.951
0.957
0.963
0.969
0.975
0.98
0.985
0.989
0.994
0.998
1.002
1.005
1.008
1.011
1.014
1.016
1.018
1.02
1.021
1.022
1.023
1.023
1.023
1.023
1.023
1.022
1.021
1.02
1.018
1.016
1.014
1.011
1.008
1.005
1.002
0.998
0.994
0.989
0.985
0.98
0.975
0.969
0.963
0.957
0.951
0.944
0.937
0.93
0.923
0.915
0.907
0.899
0.89
0.881
0.872
0.863
0.853
0.843
0.833
0.823
0.812
0.801
0.79
0.779
0.768
0.756
0.744
0.732
0.719
0.706
0.695
0.679
0.669
0.681
0.69
0.706
0.718
0.731
0.744
0.756
0.768
0.78
0.792
0.804
0.815
0.826
0.837
0.847
0.857
0.867
0.877
0.887
0.896
0.905
0.914
0.922
0.93
0.938
0.946
0.953
0.96
0.967
0.973
0.979
0.985
0.991
0.996
1.001
1.006
1.01
1.014
1.018
1.022
1.025
1.028
1.031
1.033
1.035
1.037
1.038
1.039
1.04
1.04
1.04
1.04
1.04
1.039
1.038
1.037
1.035
1.033
1.031
1.028
1.025
1.022
1.018
1.014
1.01
1.006
1.001
0.996
0.991
0.985
0.979
0.973
0.967
0.96
0.953
0.946
0.938
0.93
0.922
0.914
0.905
0.896
0.887
0.877
0.867
0.857
0.847
0.837
0.826
0.815
0.804
0.792
0.78
0.768
0.756
0.744
0.731
0.718
0.706
0.69
0.68
0.692
0.701
0.718
0.73
0.743
0.756
0.768
0.781
0.793
0.805
0.817
0.828
0.839
0.85
0.861
0.871
0.881
0.891
0.901
0.91
0.919
0.928
0.937
0.945
0.953
0.961
0.968
0.975
0.982
0.989
0.995
1.001
1.007
1.012
1.017
1.022
1.027
1.031
1.035
1.038
1.042
1.045
1.047
1.05
1.052
1.053
1.055
1.056
1.057
1.057
1.057
1.057
1.057
1.056
1.055
1.053
1.052
1.05
1.047
1.045
1.042
1.038
1.035
1.031
1.027
1.022
1.017
1.012
1.007
1.001
0.995
0.989
0.982
0.975
0.968
0.961
0.953
0.945
0.937
0.928
0.919
0.91
0.901
0.891
0.881
0.871
0.861
0.85
0.839
0.828
0.816
0.805
0.793
0.781
0.768
0.756
0.743
0.729
0.718
0.701
0.691
0.702
0.712
0.729
0.741
0.755
0.768
0.78
0.793
0.805
0.817
0.829
0.841
0.852
0.863
0.874
0.885
0.895
0.905
0.915
0.925
0.934
0.943
0.951
0.96
0.968
0.976
0.983
0.991
0.998
1.004
1.011
1.017
1.023
1.028
1.033
1.038
1.043
1.047
1.051
1.054
1.058
1.061
1.063
1.066
1.068
1.07
1.071
1.072
1.073
1.073
1.074
1.073
1.073
1.072
1.071
1.07
1.068
1.066
1.063
1.061
1.058
1.054
1.051
1.047
1.043
1.038
1.033
1.028
1.023
1.017
1.011
1.004
0.998
0.991
0.983
0.976
0.968
0.96
0.951
0.943
0.934
0.924
0.915
0.905
0.895
0.885
0.874
0.863
0.852
0.841
0.829
0.817
0.805
0.793
0.78
0.768
0.755
0.741
0.729
0.712
0.702
0.713
0.723
0.74
0.752
0.766
0.779
0.792
0.805
0.817
0.83
0.842
0.853
0.865
0.876
0.887
0.898
0.909
0.919
0.929
0.938
0.948
0.957
0.966
0.974
0.983
0.99
0.998
1.006
1.013
1.019
1.026
1.032
1.038
1.043
1.049
1.054
1.058
1.063
1.067
1.07
1.074
1.077
1.079
1.082
1.084
1.086
1.087
1.088
1.089
1.09
1.09
1.09
1.089
1.088
1.087
1.086
1.084
1.082
1.079
1.077
1.074
1.07
1.067
1.063
1.058
1.054
1.049
1.043
1.038
1.032
1.026
1.019
1.013
1.006
0.998
0.99
0.982
0.974
0.966
0.957
0.948
0.938
0.929
0.919
0.908
0.898
0.887
0.876
0.865
0.853
0.842
0.83
0.817
0.805
0.792
0.779
0.766
0.752
0.74
0.723
0.713
0.723
0.734
0.75
0.763
0.777
0.79
0.804
0.817
0.829
0.842
0.854
0.866
0.878
0.889
0.9
0.911
0.922
0.932
0.942
0.952
0.962
0.971
0.98
0.988
0.997
1.005
1.013
1.02
1.027
1.034
1.041
1.047
1.053
1.059
1.064
1.069
1.074
1.078
1.082
1.086
1.089
1.092
1.095
1.098
1.1
1.101
1.103
1.104
1.105
1.105
1.106
1.105
1.105
1.104
1.103
1.101
1.1
1.098
1.095
1.092
1.089
1.086
1.082
1.078
1.074
1.069
1.064
1.059
1.053
1.047
1.041
1.034
1.027
1.02
1.013
1.005
0.997
0.988
0.98
0.971
0.961
0.952
0.942
0.932
0.922
0.911
0.9
0.889
0.878
0.866
0.854
0.842
0.829
0.816
0.804
0.79
0.777
0.763
0.75
0.734
0.723
0.733
0.744
0.761
0.774
0.788
0.802
0.815
0.828
0.841
0.853
0.866
0.878
0.89
0.901
0.913
0.924
0.935
0.945
0.955
0.965
0.975
0.984
0.993
1.002
1.011
1.019
1.027
1.034
1.042
1.049
1.055
1.062
1.068
1.073
1.079
1.084
1.089
1.093
1.097
1.101
1.104
1.108
1.11
1.113
1.115
1.117
1.118
1.12
1.12
1.121
1.121
1.121
1.12
1.12
1.118
1.117
1.115
1.113
1.11
1.108
1.104
1.101
1.097
1.093
1.089
1.084
1.079
1.073
1.068
1.062
1.055
1.049
1.042
1.034
1.027
1.019
1.011
1.002
0.993
0.984
0.975
0.965
0.955
0.945
0.935
0.924
0.913
0.901
0.89
0.878
0.866
0.853
0.841
0.828
0.815
0.801
0.788
0.774
0.761
0.744
0.733
0.743
0.754
0.771
0.784
0.799
0.812
0.826
0.839
0.852
0.865
0.878
0.89
0.902
0.914
0.925
0.936
0.947
0.958
0.968
0.978
0.988
0.998
1.007
1.016
1.024
1.033
1.041
1.048
1.056
1.063
1.07
1.076
1.082
1.088
1.093
1.099
1.103
1.108
1.112
1.116
1.119
1.123
1.125
1.128
1.13
1.132
1.133
1.135
1.136
1.136
1.136
1.136
1.136
1.135
1.133
1.132
1.13
1.128
1.125
1.123
1.119
1.116
1.112
1.108
1.103
1.099
1.093
1.088
1.082
1.076
1.07
1.063
1.056
1.048
1.041
1.033
1.024
1.016
1.007
0.998
0.988
0.978
0.968
0.958
0.947
0.936
0.925
0.914
0.902
0.89
0.878
0.865
0.852
0.839
0.826
0.812
0.798
0.784
0.771
0.754
0.743
0.753
0.764
0.781
0.794
0.809
0.823
0.837
0.85
0.863
0.876
0.889
0.901
0.914
0.926
0.937
0.949
0.96
0.97
0.981
0.991
1.001
1.011
1.02
1.029
1.038
1.046
1.054
1.062
1.07
1.077
1.084
1.09
1.096
1.102
1.108
1.113
1.118
1.122
1.127
1.13
1.134
1.137
1.14
1.143
1.145
1.147
1.148
1.149
1.15
1.151
1.151
1.151
1.15
1.149
1.148
1.147
1.145
1.143
1.14
1.137
1.134
1.13
1.127
1.122
1.118
1.113
1.108
1.102
1.096
1.09
1.083
1.077
1.069
1.062
1.054
1.046
1.038
1.029
1.02
1.011
1.001
0.991
0.981
0.97
0.96
0.948
0.937
0.925
0.914
0.901
0.889
0.876
0.863
0.85
0.837
0.823
0.809
0.794
0.781
0.764
0.753
0.762
0.774
0.791
0.804
0.819
0.833
0.847
0.861
0.874
0.887
0.9
0.913
0.925
0.937
0.949
0.96
0.972
0.983
0.993
1.004
1.014
1.023
1.033
1.042
1.051
1.059
1.068
1.075
1.083
1.09
1.097
1.104
1.11
1.116
1.122
1.127
1.132
1.136
1.141
1.145
1.148
1.152
1.154
1.157
1.159
1.161
1.163
1.164
1.165
1.165
1.165
1.165
1.165
1.164
1.163
1.161
1.159
1.157
1.154
1.152
1.148
1.145
1.141
1.136
1.132
1.127
1.122
1.116
1.11
1.104
1.097
1.09
1.083
1.075
1.067
1.059
1.051
1.042
1.033
1.023
1.014
1.004
0.993
0.983
0.972
0.96
0.949
0.937
0.925
0.913
0.9
0.887
0.874
0.861
0.847
0.833
0.819
0.804
0.791
0.773
0.762
0.771
0.783
0.801
0.814
0.829
0.843
0.857
0.871
0.885
0.898
0.911
0.924
0.936
0.949
0.96
0.972
0.983
0.995
1.005
1.016
1.026
1.036
1.045
1.055
1.064
1.072
1.08
1.088
1.096
1.103
1.11
1.117
1.123
1.13
1.135
1.141
1.146
1.15
1.155
1.159
1.162
1.165
1.168
1.171
1.173
1.175
1.177
1.178
1.179
1.179
1.18
1.179
1.179
1.178
1.177
1.175
1.173
1.171
1.168
1.165
1.162
1.159
1.155
1.15
1.146
1.141
1.135
1.129
1.123
1.117
1.11
1.103
1.096
1.088
1.08
1.072
1.063
1.055
1.045
1.036
1.026
1.016
1.005
0.994
0.983
0.972
0.96
0.948
0.936
0.924
0.911
0.898
0.885
0.871
0.857
0.843
0.829
0.814
0.801
0.783
0.771
0.78
0.792
0.81
0.824
0.839
0.853
0.867
0.881
0.895
0.909
0.922
0.935
0.947
0.96
0.972
0.983
0.995
1.006
1.017
1.028
1.038
1.048
1.058
1.067
1.076
1.085
1.093
1.101
1.109
1.116
1.123
1.13
1.137
1.143
1.148
1.154
1.159
1.164
1.168
1.172
1.176
1.179
1.182
1.185
1.187
1.189
1.191
1.192
1.193
1.193
1.193
1.193
1.193
1.192
1.191
1.189
1.187
1.185
1.182
1.179
1.176
1.172
1.168
1.164
1.159
1.154
1.148
1.143
1.137
1.13
1.123
1.116
1.109
1.101
1.093
1.085
1.076
1.067
1.058
1.048
1.038
1.028
1.017
1.006
0.995
0.983
0.972
0.96
0.947
0.935
0.922
0.908
0.895
0.881
0.867
0.853
0.839
0.824
0.81
0.792
0.78
0.789
0.801
0.819
0.833
0.848
0.863
0.877
0.891
0.905
0.919
0.932
0.945
0.958
0.97
0.983
0.995
1.006
1.017
1.028
1.039
1.05
1.06
1.069
1.079
1.088
1.097
1.105
1.114
1.121
1.129
1.136
1.143
1.149
1.156
1.161
1.167
1.172
1.177
1.181
1.185
1.189
1.192
1.195
1.198
1.2
1.202
1.204
1.205
1.206
1.207
1.207
1.207
1.206
1.205
1.204
1.202
1.2
1.198
1.195
1.192
1.189
1.185
1.181
1.177
1.172
1.167
1.161
1.156
1.149
1.143
1.136
1.129
1.121
1.114
1.105
1.097
1.088
1.079
1.069
1.06
1.05
1.039
1.028
1.017
1.006
0.994
0.983
0.97
0.958
0.945
0.932
0.919
0.905
0.891
0.877
0.863
0.848
0.833
0.819
0.801
0.789
0.798
0.81
0.828
0.842
0.857
0.872
0.887
0.901
0.915
0.929
0.942
0.955
0.968
0.981
0.993
1.005
1.017
1.028
1.04
1.05
1.061
1.071
1.081
1.091
1.1
1.109
1.117
1.126
1.134
1.141
1.148
1.155
1.162
1.168
1.174
1.179
1.185
1.189
1.194
1.198
1.202
1.205
1.208
1.211
1.213
1.215
1.217
1.218
1.219
1.22
1.22
1.22
1.219
1.218
1.217
1.215
1.213
1.211
1.208
1.205
1.202
1.198
1.194
1.189
1.185
1.179
1.174
1.168
1.162
1.155
1.148
1.141
1.133
1.126
1.117
1.109
1.1
1.091
1.081
1.071
1.061
1.05
1.04
1.028
1.017
1.005
0.993
0.981
0.968
0.955
0.942
0.929
0.915
0.901
0.887
0.872
0.857
0.842
0.828
0.81
0.798
0.806
0.818
0.837
0.851
0.866
0.881
0.896
0.91
0.925
0.938
0.952
0.965
0.978
0.991
1.004
1.016
1.028
1.039
1.05
1.061
1.072
1.082
1.092
1.102
1.111
1.12
1.129
1.137
1.145
1.153
1.16
1.167
1.174
1.18
1.186
1.192
1.197
1.202
1.206
1.211
1.214
1.218
1.221
1.224
1.226
1.228
1.23
1.231
1.232
1.232
1.233
1.232
1.232
1.231
1.23
1.228
1.226
1.224
1.221
1.218
1.214
1.211
1.206
1.202
1.197
1.192
1.186
1.18
1.174
1.167
1.16
1.153
1.145
1.137
1.129
1.12
1.111
1.102
1.092
1.082
1.072
1.061
1.05
1.039
1.028
1.016
1.004
0.991
0.978
0.965
0.952
0.938
0.924
0.91
0.896
0.881
0.866
0.851
0.837
0.818
0.806
0.814
0.826
0.845
0.859
0.875
0.89
0.905
0.919
0.934
0.948
0.962
0.975
0.988
1.001
1.014
1.026
1.038
1.05
1.061
1.072
1.083
1.093
1.103
1.113
1.122
1.132
1.14
1.149
1.157
1.165
1.172
1.179
1.186
1.192
1.198
1.204
1.209
1.214
1.218
1.223
1.227
1.23
1.233
1.236
1.238
1.24
1.242
1.243
1.244
1.245
1.245
1.245
1.244
1.243
1.242
1.24
1.238
1.236
1.233
1.23
1.227
1.223
1.218
1.214
1.209
1.204
1.198
1.192
1.186
1.179
1.172
1.165
1.157
1.149
1.14
1.131
1.122
1.113
1.103
1.093
1.083
1.072
1.061
1.05
1.038
1.026
1.014
1.001
0.988
0.975
0.961
0.948
0.934
0.919
0.905
0.89
0.875
0.859
0.845
0.826
0.814
0.822
0.834
0.853
0.867
0.883
0.899
0.914
0.928
0.943
0.957
0.971
0.984
0.998
1.011
1.023
1.036
1.048
1.06
1.071
1.082
1.093
1.104
1.114
1.124
1.133
1.142
1.151
1.16
1.168
1.176
1.183
1.19
1.197
1.203
1.21
1.215
1.221
1.226
1.23
1.234
1.238
1.242
1.245
1.248
1.25
1.252
1.254
1.255
1.256
1.257
1.257
1.257
1.256
1.255
1.254
1.252
1.25
1.248
1.245
1.242
1.238
1.234
1.23
1.226
1.221
1.215
1.21
1.203
1.197
1.19
1.183
1.176
1.168
1.16
1.151
1.142
1.133
1.124
1.114
1.104
1.093
1.082
1.071
1.06
1.048
1.036
1.023
1.011
0.998
0.984
0.971
0.957
0.943
0.928
0.914
0.899
0.883
0.867
0.853
0.834
0.822
0.829
0.842
0.861
0.875
0.892
0.907
0.922
0.937
0.951
0.966
0.98
0.993
1.007
1.02
1.033
1.045
1.058
1.069
1.081
1.092
1.103
1.114
1.124
1.134
1.144
1.153
1.162
1.17
1.179
1.187
1.194
1.201
1.208
1.215
1.221
1.226
1.232
1.237
1.242
1.246
1.25
1.253
1.256
1.259
1.262
1.264
1.265
1.267
1.268
1.268
1.268
1.268
1.268
1.267
1.265
1.264
1.262
1.259
1.256
1.253
1.25
1.246
1.242
1.237
1.232
1.226
1.221
1.215
1.208
1.201
1.194
1.187
1.179
1.17
1.162
1.153
1.144
1.134
1.124
1.114
1.103
1.092
1.081
1.069
1.058
1.045
1.033
1.02
1.007
0.993
0.98
0.966
0.951
0.937
0.922
0.907
0.891
0.875
0.861
0.842
0.829
0.837
0.849
0.869
0.883
0.899
0.915
0.93
0.945
0.96
0.974
0.988
1.002
1.016
1.029
1.042
1.055
1.067
1.079
1.091
1.102
1.113
1.124
1.134
1.144
1.154
1.163
1.172
1.181
1.189
1.197
1.205
1.212
1.219
1.225
1.232
1.237
1.243
1.248
1.253
1.257
1.261
1.264
1.268
1.27
1.273
1.275
1.277
1.278
1.279
1.28
1.28
1.28
1.279
1.278
1.277
1.275
1.273
1.27
1.268
1.264
1.261
1.257
1.253
1.248
1.243
1.237
1.231
1.225
1.219
1.212
1.205
1.197
1.189
1.181
1.172
1.163
1.154
1.144
1.134
1.124
1.113
1.102
1.091
1.079
1.067
1.055
1.042
1.029
1.016
1.002
0.988
0.974
0.96
0.945
0.93
0.915
0.899
0.883
0.869
0.849
0.837
0.844
0.857
0.876
0.891
0.907
0.923
0.938
0.953
0.968
0.983
0.997
1.011
1.024
1.038
1.051
1.064
1.076
1.088
1.1
1.111
1.122
1.133
1.144
1.154
1.164
1.173
1.182
1.191
1.199
1.207
1.215
1.222
1.229
1.236
1.242
1.248
1.253
1.258
1.263
1.267
1.271
1.275
1.278
1.281
1.284
1.286
1.287
1.289
1.29
1.29
1.291
1.29
1.29
1.289
1.287
1.286
1.284
1.281
1.278
1.275
1.271
1.267
1.263
1.258
1.253
1.248
1.242
1.236
1.229
1.222
1.215
1.207
1.199
1.191
1.182
1.173
1.164
1.154
1.144
1.133
1.122
1.111
1.1
1.088
1.076
1.063
1.051
1.038
1.024
1.011
0.997
0.982
0.968
0.953
0.938
0.923
0.907
0.891
0.876
0.857
0.844
0.851
0.864
0.883
0.898
0.914
0.93
0.946
0.961
0.976
0.99
1.005
1.019
1.033
1.046
1.059
1.072
1.085
1.097
1.109
1.12
1.132
1.142
1.153
1.163
1.173
1.182
1.192
1.2
1.209
1.217
1.225
1.232
1.239
1.246
1.252
1.258
1.263
1.269
1.273
1.278
1.282
1.285
1.289
1.292
1.294
1.296
1.298
1.299
1.3
1.301
1.301
1.301
1.3
1.299
1.298
1.296
1.294
1.292
1.289
1.285
1.282
1.278
1.273
1.269
1.263
1.258
1.252
1.246
1.239
1.232
1.225
1.217
1.209
1.2
1.192
1.182
1.173
1.163
1.153
1.142
1.131
1.12
1.109
1.097
1.085
1.072
1.059
1.046
1.033
1.019
1.005
0.99
0.976
0.961
0.946
0.93
0.914
0.898
0.883
0.864
0.851
0.857
0.87
0.89
0.905
0.921
0.937
0.953
0.968
0.983
0.998
1.013
1.027
1.041
1.054
1.068
1.08
1.093
1.105
1.117
1.129
1.14
1.151
1.162
1.172
1.182
1.192
1.201
1.21
1.218
1.226
1.234
1.242
1.249
1.255
1.262
1.268
1.273
1.278
1.283
1.288
1.292
1.295
1.299
1.302
1.304
1.306
1.308
1.309
1.31
1.311
1.311
1.311
1.31
1.309
1.308
1.306
1.304
1.302
1.299
1.295
1.292
1.288
1.283
1.278
1.273
1.268
1.262
1.255
1.249
1.242
1.234
1.226
1.218
1.21
1.201
1.192
1.182
1.172
1.162
1.151
1.14
1.129
1.117
1.105
1.093
1.08
1.067
1.054
1.041
1.027
1.013
0.998
0.983
0.968
0.953
0.937
0.921
0.905
0.89
0.87
0.857
0.863
0.877
0.896
0.912
0.928
0.944
0.96
0.975
0.991
1.006
1.02
1.034
1.048
1.062
1.075
1.088
1.101
1.114
1.126
1.137
1.149
1.16
1.17
1.181
1.191
1.2
1.21
1.219
1.227
1.235
1.243
1.251
1.258
1.265
1.271
1.277
1.283
1.288
1.293
1.297
1.301
1.305
1.308
1.311
1.314
1.316
1.318
1.319
1.32
1.321
1.321
1.321
1.32
1.319
1.318
1.316
1.314
1.311
1.308
1.305
1.301
1.297
1.293
1.288
1.283
1.277
1.271
1.265
1.258
1.251
1.243
1.235
1.227
1.219
1.21
1.2
1.191
1.181
1.17
1.16
1.149
1.137
1.126
1.114
1.101
1.088
1.075
1.062
1.048
1.034
1.02
1.006
0.991
0.975
0.96
0.944
0.928
0.912
0.896
0.877
0.863
0.87
0.883
0.903
0.918
0.935
0.951
0.967
0.982
0.998
1.013
1.027
1.042
1.056
1.07
1.083
1.096
1.109
1.121
1.134
1.145
1.157
1.168
1.179
1.189
1.199
1.209
1.218
1.227
1.236
1.244
1.252
1.26
1.267
1.274
1.28
1.286
1.292
1.297
1.302
1.306
1.31
1.314
1.317
1.32
1.323
1.325
1.327
1.328
1.329
1.33
1.33
1.33
1.329
1.328
1.327
1.325
1.323
1.32
1.317
1.314
1.31
1.306
1.302
1.297
1.292
1.286
1.28
1.274
1.267
1.26
1.252
1.244
1.236
1.227
1.218
1.209
1.199
1.189
1.179
1.168
1.157
1.145
1.133
1.121
1.109
1.096
1.083
1.069
1.056
1.042
1.027
1.013
0.998
0.982
0.967
0.951
0.935
0.918
0.903
0.883
0.869
0.875
0.889
0.909
0.924
0.941
0.957
0.973
0.989
1.004
1.019
1.034
1.049
1.063
1.077
1.09
1.103
1.116
1.129
1.141
1.153
1.165
1.176
1.187
1.197
1.207
1.217
1.226
1.235
1.244
1.253
1.26
1.268
1.275
1.282
1.289
1.295
1.3
1.306
1.311
1.315
1.319
1.323
1.326
1.329
1.332
1.334
1.336
1.337
1.338
1.339
1.339
1.339
1.338
1.337
1.336
1.334
1.332
1.329
1.326
1.323
1.319
1.315
1.311
1.306
1.3
1.295
1.289
1.282
1.275
1.268
1.26
1.253
1.244
1.235
1.226
1.217
1.207
1.197
1.187
1.176
1.165
1.153
1.141
1.129
1.116
1.103
1.09
1.077
1.063
1.049
1.034
1.019
1.004
0.989
0.973
0.957
0.941
0.924
0.909
0.889
0.875
0.881
0.895
0.914
0.93
0.947
0.963
0.979
0.995
1.011
1.026
1.041
1.055
1.07
1.084
1.097
1.11
1.123
1.136
1.148
1.16
1.172
1.183
1.194
1.205
1.215
1.225
1.234
1.243
1.252
1.26
1.268
1.276
1.283
1.29
1.297
1.303
1.309
1.314
1.319
1.323
1.328
1.331
1.335
1.338
1.34
1.342
1.344
1.346
1.347
1.347
1.347
1.347
1.347
1.346
1.344
1.342
1.34
1.338
1.335
1.331
1.328
1.323
1.319
1.314
1.309
1.303
1.297
1.29
1.283
1.276
1.268
1.26
1.252
1.243
1.234
1.225
1.215
1.205
1.194
1.183
1.172
1.16
1.148
1.136
1.123
1.11
1.097
1.083
1.07
1.055
1.041
1.026
1.011
0.995
0.979
0.963
0.947
0.93
0.914
0.895
0.881
0.886
0.9
0.92
0.936
0.953
0.969
0.985
1.001
1.017
1.032
1.047
1.062
1.076
1.09
1.104
1.117
1.13
1.143
1.155
1.167
1.179
1.19
1.201
1.212
1.222
1.232
1.242
1.251
1.26
1.268
1.276
1.284
1.291
1.298
1.305
1.311
1.316
1.322
1.327
1.331
1.336
1.339
1.343
1.346
1.348
1.351
1.352
1.354
1.355
1.355
1.356
1.355
1.355
1.354
1.352
1.351
1.348
1.346
1.343
1.339
1.336
1.331
1.327
1.322
1.316
1.311
1.305
1.298
1.291
1.284
1.276
1.268
1.26
1.251
1.242
1.232
1.222
1.212
1.201
1.19
1.179
1.167
1.155
1.143
1.13
1.117
1.104
1.09
1.076
1.062
1.047
1.032
1.017
1.001
0.985
0.969
0.953
0.936
0.92
0.9
0.886
0.891
0.905
0.925
0.941
0.958
0.975
0.991
1.007
1.023
1.038
1.053
1.068
1.082
1.096
1.11
1.123
1.137
1.149
1.162
1.174
1.186
1.197
1.208
1.219
1.229
1.239
1.249
1.258
1.267
1.275
1.283
1.291
1.298
1.305
1.312
1.318
1.324
1.329
1.334
1.339
1.343
1.347
1.35
1.353
1.356
1.358
1.36
1.361
1.362
1.363
1.363
1.363
1.362
1.361
1.36
1.358
1.356
1.353
1.35
1.347
1.343
1.339
1.334
1.329
1.324
1.318
1.312
1.305
1.298
1.291
1.283
1.275
1.267
1.258
1.249
1.239
1.229
1.219
1.208
1.197
1.186
1.174
1.162
1.149
1.137
1.123
1.11
1.096
1.082
1.068
1.053
1.038
1.023
1.007
0.991
0.975
0.958
0.941
0.925
0.905
0.891
0.896
0.91
0.93
0.946
0.963
0.98
0.996
1.012
1.028
1.043
1.059
1.073
1.088
1.102
1.116
1.13
1.143
1.156
1.168
1.18
1.192
1.203
1.215
1.225
1.236
1.246
1.255
1.265
1.274
1.282
1.29
1.298
1.305
1.312
1.319
1.325
1.331
1.336
1.341
1.346
1.35
1.354
1.358
1.361
1.363
1.366
1.367